----- GAMESS execution script 'rungms' -----
This job is running on host node0
under operating system Linux at Tue Sep 9 23:49:20 CEST 2025
PBS has assigned the following compute nodes to this run:
node0.q4md-forcefieldtools.org
Available scratch disk space (Kbyte units) at beginning of the job is
Filesystem     1K-blocks  Used Available Use% Mounted on
/dev/sdb1      976283900 33056 976250844   1% /scratch
GAMESS temporary binary files will be written to /scratch/PyRED-19594.master1.q4md-forcefieldtools.org
GAMESS supplementary output files will be written to /scratch/PyRED-19594.master1.q4md-forcefieldtools.org
Copying input file JOB2-gam_m1-1-2.inp to your run's scratch directory...
 
Assuming a single but multicore node.
 

 Distributed Data Interface kickoff program.
 Initiating 8 compute processes on 1 nodes to run the following command:
 /usr/local/gamess_2018_Sept_R3_intel-12.1.5.339-mkl/gamess.00.x JOB2-gam_m1-1-2 

          ******************************************************
          *         GAMESS VERSION = 30 SEP 2018 (R3)         *
          *             FROM IOWA STATE UNIVERSITY             *
          * M.W.SCHMIDT, K.K.BALDRIDGE, J.A.BOATZ, S.T.ELBERT, *
          *   M.S.GORDON, J.H.JENSEN, S.KOSEKI, N.MATSUNAGA,   *
          *          K.A.NGUYEN, S.J.SU, T.L.WINDUS,           *
          *       TOGETHER WITH M.DUPUIS, J.A.MONTGOMERY       *
          *         J.COMPUT.CHEM.  14, 1347-1363(1993)        *
          **************** 64 BIT INTEL VERSION ****************

  SINCE 1993, STUDENTS AND POSTDOCS WORKING AT IOWA STATE UNIVERSITY
  AND ALSO IN THEIR VARIOUS JOBS AFTER LEAVING ISU HAVE MADE IMPORTANT
  CONTRIBUTIONS TO THE CODE:
     IVANA ADAMOVIC, CHRISTINE AIKENS, YURI ALEXEEV, POOJA ARORA,
     ANDREY ASADCHEV, ROB BELL, PRADIPTA BANDYOPADHYAY, JONATHAN BENTZ,
     BRETT BODE, KURT BRORSEN, CALEB CARLIN, GALINA CHABAN, WEI CHEN,
     CHEOL HO CHOI, PAUL DAY, ALBERT DEFUSCO, NUWAN DESILVA, TIM DUDLEY,
     DMITRI FEDOROV, ALEX FINDLATER, GRAHAM FLETCHER, MARK FREITAG,
     KURT GLAESEMANN, ANASTASIA GUNINA,
     DAN KEMP, GRANT MERRILL, NORIYUKI MINEZAWA, JONATHAN MULLIN,
     TAKESHI NAGATA, SEAN NEDD, HEATHER NETZLOFF, BOSILJKA NJEGIC, RYAN OLSON,
     MIKE PAK, BUU PHAM,
     SPENCER PRUITT, LUKE ROSKOP, JIM SHOEMAKER, LYUDMILA SLIPCHENKO,
     TONY SMITH, SAROM SOK LEANG, JIE SONG, TETSUYA TAKETSUGU, SIMON WEBB,
     PENG XU, SOOHAENG YOO, FEDERICO ZAHARIEV

  ADDITIONAL CODE HAS BEEN PROVIDED BY COLLABORATORS IN OTHER GROUPS:
     IOWA STATE UNIVERSITY:
          JOE IVANIC, AARON WEST, LAIMUTIS BYTAUTAS, KLAUS RUEDENBERG
     UNIVERSITY OF TOKYO: KIMIHIKO HIRAO, TAKAHITO NAKAJIMA,
          TAKAO TSUNEDA, MUNEAKI KAMIYA, SUSUMU YANAGISAWA,
          KIYOSHI YAGI, MAHITO CHIBA, SEIKEN TOKURA, NAOAKI KAWAKAMI
     UNIVERSITY OF AARHUS: FRANK JENSEN
     UNIVERSITY OF IOWA: VISVALDAS KAIRYS, HUI LI
     NATIONAL INST. OF STANDARDS AND TECHNOLOGY: WALT STEVENS, DAVID GARMER
     UNIVERSITY OF PISA: BENEDETTA MENNUCCI, JACOPO TOMASI
     UNIVERSITY OF MEMPHIS: HENRY KURTZ, PRAKASHAN KORAMBATH
     UNIVERSITY OF ALBERTA: TOBY ZENG, MARIUSZ KLOBUKOWSKI
     UNIVERSITY OF NEW ENGLAND: MARK SPACKMAN
     MIE UNIVERSITY: HIROAKI UMEDA
     NAT. INST. OF ADVANCED INDUSTRIAL SCIENCE AND TECHNOLOGY: KAZUO KITAURA
     MICHIGAN STATE UNIVERSITY:
          KAROL KOWALSKI, MARTA WLOCH, JEFFREY GOUR, JESSE LUTZ,
          WEI LI, JUN SHEN, J. EMILIANO DEUSTUA, PIOTR PIECUCH
     UNIVERSITY OF MINNESOTA:
          YINAN SHU
     UNIVERSITY OF SILESIA: MONIKA MUSIAL, STANISLAW KUCHARSKI
     FACULTES UNIVERSITAIRES NOTRE-DAME DE LA PAIX:
          OLIVIER QUINET, BENOIT CHAMPAGNE
     UNIVERSITY OF CALIFORNIA - SANTA BARBARA: BERNARD KIRTMAN
     INSTITUTE FOR MOLECULAR SCIENCE:
          KAZUYA ISHIMURA, MICHIO KATOUDA, AND SHIGERU NAGASE
     UNIVERSITY OF NOTRE DAME: ANNA POMOGAEVA, DAN CHIPMAN
     KYUSHU UNIVERSITY:
          HARUYUKI NAKANO,
          FENG LONG GU, JACEK KORCHOWIEC, MARCIN MAKOWSKI, AND YURIKO AOKI,
          HIROTOSHI MORI AND EISAKU MIYOSHI
     PENNSYLVANIA STATE UNIVERSITY:
          TZVETELIN IORDANOV, CHET SWALINA, JONATHAN SKONE,
          SHARON HAMMES-SCHIFFER
     WASEDA UNIVERSITY:
          MASATO KOBAYASHI, TOMOKO AKAMA, TSUGUKI TOUMA,
          TAKESHI YOSHIKAWA, YASUHIRO IKABATA, JUNJI SEINO,
          YUYA NAKAJIMA, HIROMI NAKAI
     NANJING UNIVERSITY: SHUHUA LI
     UNIVERSITY OF NEBRASKA:
          PEIFENG SU, DEJUN SI, NANDUN THELLAMUREGE, YALI WANG, HUI LI
     UNIVERSITY OF ZURICH: ROBERTO PEVERATI, KIM BALDRIDGE
     N. COPERNICUS UNIVERSITY AND JACKSON STATE UNIVERSITY:
          MARIA BARYSZ
     UNIVERSITY OF COPENHAGEN: Jimmy Kromann, CASPER STEINMANN
     TOKYO INSTITUTE OF TECHNOLOGY: HIROYA NAKATA
     NAGOYA UNIVERSITY: YOSHIO NISHIMOTO, STEPHAN IRLE
     MOSCOW STATE UNIVERSITY: VLADIMIR MIRONOV


 PARALLEL VERSION RUNNING ON        8 PROCESSORS IN        1 NODES.

 EXECUTION OF GAMESS BEGUN Tue Sep  9 23:49:20 2025

            ECHO OF THE FIRST FEW INPUT CARDS -
 INPUT CARD>! Single point to get MEP - Input generated by PyRED                            
 INPUT CARD>!                                                                               
 INPUT CARD> $CONTRL ICHARG=0 MULT=1 RUNTYP=ENERGY MOLPLT=.T.                               
 INPUT CARD>         MPLEVL=0 UNITS=ANGS MAXIT=128 EXETYP=RUN                               
 INPUT CARD>         SCFTYP=RHF                                                             
 INPUT CARD>         COORD=UNIQUE                                                           
 INPUT CARD>         DFTTYP=NONE                                   $END                     
 INPUT CARD> $SCF    DIRSCF=.T. CONV=1.0E-07                       $END                     
 INPUT CARD> $SYSTEM TIMLIM=5000 MWORDS=7680 MEMDDI=0              $END                     
 INPUT CARD> $BASIS  GBASIS=N31 NGAUSS=6 NDFUNC=1                  $END                     
 INPUT CARD> $GUESS  GUESS=HUCKEL                                  $END                     
 INPUT CARD>! CHELPG/CONNOLLY CHARGES                                                       
 INPUT CARD> $ELPOT  IEPOT=1 WHERE=PDC OUTPUT=PUNCH                $END                     
 INPUT CARD> $PDC    PTSEL=CONNOLLY CONSTR=CHARGE                                           
 INPUT CARD>         VDWSCL=1.4 VDWINC=0.2 LAYER=4 PTDENS=0.28     $END                     
 INPUT CARD> $DATA                                                                          
 INPUT CARD> MOLECULE-1                                                                     
 INPUT CARD> C1                                                                             
 INPUT CARD> C           6   6.88606230  -2.39829982   0.96155255                           
 INPUT CARD> H           1   7.11690525  -3.07440214   0.14788727                           
 INPUT CARD> H           1   7.74026245  -1.74483835   1.09902292                           
 INPUT CARD> H           1   6.77029411  -2.99031300   1.87029417                           
 INPUT CARD> N           7   5.72778780  -1.60600631   0.60064414                           
 INPUT CARD> H           1   4.98892790  -2.17602899   0.24336680                           
 INPUT CARD> C           6   5.27329404  -0.64699032   1.57929794                           
 INPUT CARD> H           1   6.15478421  -0.22966730   2.05497449                           
 INPUT CARD> C           6   4.40702417  -1.16096230   2.74843505                           
 INPUT CARD> O           8   4.19209862  -0.41795972   3.65713659                           
 INPUT CARD> C           6   3.83732511  -2.56073539   2.72211164                           
 INPUT CARD> H           1   3.26825131  -2.72016512   3.62704060                           
 INPUT CARD> H           1   3.18559090  -2.68826000   1.86353993                           
 INPUT CARD> H           1   4.62255009  -3.30526515   2.65496439                           
 INPUT CARD> C           6   4.57572950   0.54902772   0.91099390                           
 INPUT CARD> H           1   4.28338807   1.25384199   1.67466391                           
 INPUT CARD> H           1   5.27437157   1.01088597   0.22836043                           
 INPUT CARD> S          16   3.08907823  -0.00000000   0.00000000                           
 INPUT CARD> C           6   1.86145934   3.86636086  -0.04102879                           
 INPUT CARD> H           1   2.30653687   4.84006912  -0.07627532                           
 INPUT CARD> C           6   2.64422187   2.72828661  -0.03880992                           
 INPUT CARD> H           1   3.70921665   2.83890006  -0.08135470                           
 INPUT CARD> C           6   2.07530598   1.45823223   0.00000000                           
 INPUT CARD> C           6   0.67600806   1.34605736   0.03046654                           
 INPUT CARD> C           6  -0.10868656   2.48630130   0.02563187                           
 INPUT CARD> H           1  -1.17814128   2.41736208   0.03311076                           
 INPUT CARD> C           6   0.48918903   3.73080982  -0.00886357                           
 INPUT CARD> N           7  -0.34889460   4.91924915  -0.01310984                           
 INPUT CARD> O           8  -1.53124485   4.76214924   0.04339272                           
 INPUT CARD> O           8   0.19646505   5.97886627  -0.06872054                           
 INPUT CARD> C           6   0.00000000   0.00000000   0.00000000                           
 INPUT CARD> O           8   0.30612704  -0.83255710  -0.80004716                           
 7680000000 WORDS OF MEMORY AVAILABLE

     BASIS OPTIONS
     -------------
     GBASIS=N31          IGAUSS=       6      POLAR=POPN31  
     NDFUNC=       1     NFFUNC=       0     DIFFSP=       F
     NPFUNC=       0      DIFFS=       F     BASNAM=        


     RUN TITLE
     ---------
  MOLECULE-1                                                                     

 THE POINT GROUP OF THE MOLECULE IS C1      
 THE ORDER OF THE PRINCIPAL AXIS IS     0

 ATOM      ATOMIC                      COORDINATES (BOHR)
           CHARGE         X                   Y                   Z
 C           6.0    13.0127708814       -4.5321294962        1.8170708423
 H           1.0    13.4490008031       -5.8097776207        0.2794664174
 H           1.0    14.6269751036       -3.2972663744        2.0768521730
 H           1.0    12.7940007242       -5.6508721875        3.5343434977
 N           7.0    10.8239494578       -3.0349118605        1.1350528407
 H           1.0     9.4277067035       -4.1120985324        0.4598965665
 C           6.0     9.9650807883       -1.2226344215        2.9844403596
 H           1.0    11.6308556705       -0.4340082653        3.8833386979
 C           6.0     8.3280681026       -2.1939006291        5.1937891396
 O           8.0     7.9219177053       -0.7898293447        6.9109860548
 C           6.0     7.2514929837       -4.8390882142        5.1440451076
 H           1.0     6.1760994349       -5.1403667182        6.8541128803
 H           1.0     6.0198939100       -5.0800747838        3.5215798349
 H           1.0     8.7353530346       -6.2460454503        5.0171552043
 C           6.0     8.6468749489        1.0375119505        1.7215288475
 H           1.0     8.0944297514        2.3694177930        3.1646559114
 H           1.0     9.9671170247        1.9102974881        0.4315386391
 S          16.0     5.8375114093        0.0000000000        0.0000000000
 C           6.0     3.5176480899        7.3063625951       -0.0775331707
 H           1.0     4.3587226649        9.1464043984       -0.1441394544
 C           6.0     4.9968547850        5.1557141089       -0.0733401144
 H           1.0     7.0094030976        5.3647432199       -0.1537380908
 C           6.0     3.9217596429        2.7556593412        0.0000000000
 C           6.0     1.2774699989        2.5436795742        0.0575734124
 C           6.0    -0.2053878169        4.6984281799        0.0484372109
 H           1.0    -2.2263641940        4.5681519443        0.0625702636
 C           6.0     0.9244332229        7.0502082721       -0.0167497186
 N           7.0    -0.6593151926        9.2960329588       -0.0247740053
 O           8.0    -2.8936331866        8.9991571762        0.0820003507
 O           8.0     0.3712651107       11.2984189675       -0.1298629903
 C           6.0     0.0000000000        0.0000000000        0.0000000000
 O           8.0     0.5784962230       -1.5733047881       -1.5118699097
 N           7.0    -1.8469829181       -0.2863704179        1.7774542298
 H           1.0    -1.9776348312        1.0759127510        3.0665553410
 C           6.0    -3.4327131081       -2.3677196852        2.1806974160
 C           6.0    -5.0205192945       -2.2962799549        4.2766994485
 H           1.0    -5.0146046222       -0.7092920010        5.5465961249
 C           6.0    -6.6187087503       -4.3090706437        4.7093606983
 H           1.0    -7.8569399308       -4.2826780313        6.3215974511
 N           7.0    -6.7458185799       -6.3288117069        3.2466988376
 C           6.0    -5.2328038554       -6.3713076003        1.2652261619
 H           1.0    -5.3530512396       -8.0233381085        0.0859716098
 C           6.0    -3.5447297530       -4.4768775555        0.6231639408
 H           1.0    -2.3727826013       -4.6516388668       -1.0101732846

          INTERNUCLEAR DISTANCES (ANGS.)
          ------------------------------

                1 C          2 H          3 H          4 H          5 N     

   1 C       0.0000000    1.0827992 *  1.0842361 *  1.0907306 *  1.4489940 *
   2 H       1.0827992 *  0.0000000    1.7495637 *  1.7589474 *  2.0714300 *
   3 H       1.0842361 *  1.7495637 *  0.0000000    1.7569590 *  2.0779100 *
   4 H       1.0907306 *  1.7589474 *  1.7569590 *  0.0000000    2.1482867 *
   5 N       1.4489940 *  2.0714300 *  2.0779100 *  2.1482867 *  0.0000000  
   6 H       2.0406651 *  2.3118128 *  2.9134026 *  2.5462162 *  0.9992432 *
   7 C       2.4596170 *  3.3675164    2.7426023 *  2.7958629 *  1.4436203 *
   8 H       2.5363963 *  3.5574113    2.3923478 *  2.8344530 *  2.0473670 *
   9 C       3.2969051    4.2151579    3.7645649    3.1149158    2.5603684 *
  10 O       4.2948062    5.2845067    4.5709976    4.0567104    3.6210416  
  11 C       3.5243087    4.2007298    4.3050000    3.0842239    2.9976626 *
  12 H       4.5052170    5.2002047    5.2288641    3.9272690    4.0558285  
  13 H       3.8198360    4.3067160    4.7137632    3.5974128    3.0379177  
  14 H       2.9687905 *  3.5440854    3.8178549    2.3081825 *  2.8860462 *
  15 C       3.7452548    4.4910077    3.9129842    4.2735587    2.4632757 *
  16 H       4.5409890    5.3938450    4.6123125    4.9229894    3.3791332  
  17 H       3.8415707    4.4822969    3.7990377    4.5763876    2.6818476 *
  18 S       4.5927675    5.0692415    5.0878116    5.0981685    3.1468743  
  19 C       8.0930697    8.7080188    8.2064365    8.6466057    6.7310506  
  20 H       8.6280429    9.2643806    8.6178713    9.2211250    7.3290563  
  21 C       6.7287312    7.3287754    6.8755465    7.3055823    5.3575531  
  22 H       6.2135551    6.8287654    6.2171762    6.8672304    4.9291931  
  23 C       6.2402563    6.7811775    6.5999428    6.7327905    4.8053048  
  24 C       7.3110810    7.8127720    7.7845449    7.7025578    5.8787976  
  25 C       8.5826445    9.1184180    8.9811309    8.9842339    7.1513673  
  26 H       9.4384312    9.9488916    9.8993942    9.7875338    8.0125803  
  27 C       8.9122208    9.5006370    9.1535895    9.3891963    7.5030676  
  28 N      10.3363964   10.9390378   10.5395144   10.8069992    8.9376575  
  29 O      11.0890084   11.6710307   11.3761193   11.5045117    9.6725120  
  30 O      10.7698229   11.3974155   10.8594713   11.2880992    9.4113693  
  31 C       7.3548813    7.7539770    8.0102419    7.6339279    5.9789282  
  32 O       6.9893012    7.2326447    7.7269071    7.3192957    5.6528369  
  33 N       8.1781484    8.6422780    8.8634650    8.3035809    6.8695215  
  34 H       8.4952912    9.0605543    9.1014992    8.5927318    7.1880532  
  35 C       8.7797321    9.1725623    9.5695847    8.7900417    7.5728009  
  36 C       9.7035634   10.1713003   10.4753753    9.6007616    8.5566948  
  37 H       9.9495134   10.5126935   10.6432844    9.8377851    8.7870518  
  38 C      10.5013367   10.9039929   11.3413553   10.3160304    9.4461546  
  39 H      11.2988676   11.7470495   12.1193760   11.0508389   10.2806596  
  40 N      10.5261557   10.8048690   11.4399642   10.3473691    9.5252724  
  41 C       9.7084645    9.9041974   10.6431646    9.6222062    8.6786329  
  42 H       9.9351343   10.0188564   10.9156942    9.8551411    8.9754502  
  43 C       8.7846499    9.0221482    9.6669481    8.8042014    7.6465698  
  44 H       8.2782478    8.4226217    9.1710526    8.3951334    7.1266157  

                6 H          7 C          8 H          9 C         10 O     

   1 C       2.0406651 *  2.4596170 *  2.5363963 *  3.2969051    4.2948062  
   2 H       2.3118128 *  3.3675164    3.5574113    4.2151579    5.2845067  
   3 H       2.9134026 *  2.7426023 *  2.3923478 *  3.7645649    4.5709976  
   4 H       2.5462162 *  2.7958629 *  2.8344530 *  3.1149158    4.0567104  
   5 N       0.9992432 *  1.4436203 *  2.0473670 *  2.5603684 *  3.6210416  
   6 H       0.0000000    2.0502525 *  2.9033545 *  2.7648398 *  3.9216793  
   7 C       2.0502525 *  0.0000000    1.0851044 *  1.5432020 *  2.3534766 *
   8 H       2.9033545 *  1.0851044 *  0.0000000    2.0983000 *  2.5405732 *
   9 C       2.7648398 *  1.5432020 *  2.0983000 *  0.0000000    1.1933081 *
  10 O       3.9216793    2.3534766 *  2.5405732 *  1.1933081 *  0.0000000  
  11 C       2.7601384 *  2.6514996 *  3.3540374    1.5114942 *  2.3646614 *
  12 H       3.8348482    3.5371599    4.1238384    2.1212885 *  2.4808364 *
  13 H       2.4777744 *  2.9336121 *  3.8597194    2.1465267 *  3.0633821  
  14 H       2.6879751 *  2.9405699 *  3.4881272    2.1571330 *  3.0864495  
  15 C       2.8359113 *  1.5374283 *  2.0996360 *  2.5156942 *  2.9365859 *
  16 H       3.7829106    2.1452673 *  2.4181728 *  2.6456663 *  2.5948897 *
  17 H       3.1997078    2.1385947 *  2.3771028 *  3.4380216    3.8690336  
  18 S       2.8989237 *  2.7719266 *  3.6978670    3.2617036    3.8426543  
  19 C       6.8097295    5.8852709    6.2931165    6.2876853    6.1207605  
  20 H       7.5181797    6.4537115    6.7121875    6.9572562    6.7186736  
  21 C       5.4433061    4.5741434    5.0455399    5.0992611    5.0945862  
  22 H       5.1858093    4.1659977    4.4677521    4.9490953    4.9816290  
  23 C       4.6643622    4.1416508    4.8697092    4.4554444    4.6233706  
  24 C       5.5724049    5.2446312    6.0496718    5.2529022    5.3504565  
  25 C       6.9116138    6.4184975    7.1222035    6.4115390    6.3339807  
  26 H       7.6926063    7.3076650    8.0539738    7.1673890    7.0719226  
  27 C       7.4298058    6.6764550    7.2141372    6.8470112    6.6605845  
  28 N       8.8826292    8.0701790    8.5490439    8.1984062    7.9105706  
  29 O       9.5231801    8.8272048    9.3829492    8.8126922    8.5234579  
  30 O       9.4640063    8.5083567    8.8632690    8.7545603    8.4122816  
  31 C       5.4482778    5.5425994    6.4928450    5.3219912    5.5788018  
  32 O       4.9821936    5.5107591    6.5361621    5.4329489    5.9278287  
  33 N       6.3388892    6.3027266    7.2191236    5.7688009    5.8458649  
  34 H       6.7724754    6.4359467    7.2583756    5.8311471    5.7058408  
  35 C       6.9278662    7.1283555    8.0870565    6.4251992    6.5625022  
  36 C       7.9661201    7.9797202    8.8689077    7.0806273    7.0345858  
  37 H       8.3003937    8.0466119    8.8534620    7.1066643    6.8838141  
  38 C       8.7847279    8.9730037    9.8822349    7.9924118    8.0019935  
  39 H       9.6587191    9.7306028   10.5905747    8.6563666    8.5576276  
  40 N       8.7636450    9.2476807   10.2181397    8.3353515    8.5204080  
  41 C       7.8611440    8.5399475    9.5617079    7.7913436    8.1306531  
  42 H       8.0932712    9.0006168   10.0469986    8.3207998    8.7774742  
  43 C       6.8679752    7.4589726    8.4878435    6.8398268    7.1900962  
  44 H       6.2992935    7.0984327    8.1609487    6.6734650    7.1710682  

               11 C         12 H         13 H         14 H         15 C     

   1 C       3.5243087    4.5052170    3.8198360    2.9687905 *  3.7452548  
   2 H       4.2007298    5.2002047    4.3067160    3.5440854    4.4910077  
   3 H       4.3050000    5.2288641    4.7137632    3.8178549    3.9129842  
   4 H       3.0842239    3.9272690    3.5974128    2.3081825 *  4.2735587  
   5 N       2.9976626 *  4.0558285    3.0379177    2.8860462 *  2.4632757 *
   6 H       2.7601384 *  3.8348482    2.4777744 *  2.6879751 *  2.8359113 *
   7 C       2.6514996 *  3.5371599    2.9336121 *  2.9405699 *  1.5374283 *
   8 H       3.3540374    4.1238384    3.8597194    3.4881272    2.0996360 *
   9 C       1.5114942 *  2.1212885 *  2.1465267 *  2.1571330 *  2.5156942 *
  10 O       2.3646614 *  2.4808364 *  3.0633821    3.0864495    2.9365859 *
  11 C       0.0000000    1.0808142 *  1.0854333 *  1.0841640 *  3.6736923  
  12 H       1.0808142 *  0.0000000    1.7657251 *  1.7667483 *  4.4468001  
  13 H       1.0854333 *  1.7657251 *  0.0000000    1.7526836 *  3.6496385  
  14 H       1.0841640 *  1.7667483 *  1.7526836 *  0.0000000    4.2307445  
  15 C       3.6736923    4.4468001    3.6496385    4.2307445    0.0000000  
  16 H       3.9808441    4.5425775    4.0964620    4.6756259    1.0795455 *
  17 H       4.5869790    5.4310485    4.5519773    4.9942405    1.0804639 *
  18 S       3.8114474    4.5372706    3.2724360    4.5083422    1.8279697 *
  19 C       7.2695637    7.6691669    6.9529678    8.1439684    4.3907071  
  20 H       8.0589199    8.4732866    7.8237688    8.8977558    4.9534808  
  21 C       6.0844011    6.5964763    5.7663674    6.8973871    3.0630081  
  22 H       6.0853840    6.6970032    5.8827117    6.7876643    2.6418016 *
  23 C       5.1639814    5.6601719    4.6796273    6.0189863    2.8122376 *
  24 C       5.7010445    6.0157489    5.0925319    6.6406313    4.0765687  
  25 C       6.9508698    7.1750364    6.4036126    7.9271831    5.1459352  
  26 H       7.5608917    7.6864117    6.9613222    8.5598247    6.1129683  
  27 C       7.6322855    7.9093656    7.2097805    8.5841135    5.2601985  
  28 N       8.9975575    9.2029935    8.5958477    9.9737915    6.6486634  
  29 O       9.4668748    9.5845044    9.0038921   10.4772455    7.4698233  
  30 O       9.6937817    9.9381924    9.3695027   10.6397267    7.0442135  
  31 C       5.3565214    5.5889345    4.5659076    6.2722869    4.6977273  
  32 O       5.2784053    5.6512256    4.3393135    6.0566408    4.8027017  
  33 N       5.6709296    5.6427169    4.9615645    6.6516385    5.5972057  
  34 H       5.9040626    5.7840575    5.3460967    6.9438061    5.6671592  
  35 C       6.0112614    5.8415431    5.2521106    6.9228993    6.6458192  
  36 C       6.6478743    6.2634596    6.0384305    7.5835539    7.5663230  
  37 H       6.8522715    6.4066710    6.3713598    7.8489185    7.5640606  
  38 C       7.3487530    6.8792662    6.7299103    8.1910386    8.7041395  
  39 H       8.0246893    7.4451571    7.5031747    8.8684260    9.4934009  
  40 N       7.5162532    7.1272495    6.7891259    8.2457981    9.0661497  
  41 C       6.9652793    6.7542992    6.1115189    7.6539241    8.3291945  
  42 H       7.3819390    7.2371751    6.4769671    7.9545476    8.8670274  
  43 C       6.1967534    6.1201691    5.2982955    6.9650170    7.1045888  
  44 H       6.0459797    6.1523367    5.0523920    6.7407606    6.7199570  

               16 H         17 H         18 S         19 C         20 H     

   1 C       4.5409890    3.8415707    4.5927675    8.0930697    8.6280429  
   2 H       5.3938450    4.4822969    5.0692415    8.7080188    9.2643806  
   3 H       4.6123125    3.7990377    5.0878116    8.2064365    8.6178713  
   4 H       4.9229894    4.5763876    5.0981685    8.6466057    9.2211250  
   5 N       3.3791332    2.6818476 *  3.1468743    6.7310506    7.3290563  
   6 H       3.7829106    3.1997078    2.8989237 *  6.8097295    7.5181797  
   7 C       2.1452673 *  2.1385947 *  2.7719266 *  5.8852709    6.4537115  
   8 H       2.4181728 *  2.3771028 *  3.6978670    6.2931165    6.7121875  
   9 C       2.6456663 *  3.4380216    3.2617036    6.2876853    6.9572562  
  10 O       2.5948897 *  3.8690336    3.8426543    6.1207605    6.7186736  
  11 C       3.9808441    4.5869790    3.8114474    7.2695637    8.0589199  
  12 H       4.5425775    5.4310485    4.5372706    7.6691669    8.4732866  
  13 H       4.0964620    4.5519773    3.2724360    6.9529678    7.8237688  
  14 H       4.6756259    4.9942405    4.5083422    8.1439684    8.8977558  
  15 C       1.0795455 *  1.0804639 *  1.8279697 *  4.3907071    4.9534808  
  16 H       0.0000000    1.7699914 *  2.4089406 *  3.9540606    4.4536226  
  17 H       1.7699914 *  0.0000000    2.4185835 *  4.4580576    4.8542239  
  18 S       2.4089406 *  2.4185835 *  0.0000000    4.0567817    4.9035149  
  19 C       3.9540606    4.4580576    4.0567817    0.0000000    1.0711882 *
  20 H       4.4536226    4.8542239    4.9035149    1.0711882 *  0.0000000  
  21 C       2.7922832 *  3.1525438    2.7645888 *  1.3812802 *  2.1389390 *
  22 H       2.4342726 *  2.4263695 *  2.9069819 *  2.1145943 *  2.4438114 *
  23 C       2.7788309 *  3.2382538    1.7759998 *  2.4179531 *  3.3905909  
  24 C       3.9654860    4.6148076    2.7632782 *  2.7860969 *  3.8572187  
  25 C       4.8506270    5.5852721    4.0506852    2.4063422 *  3.3740054  
  26 H       5.8203762    6.6069070    4.9044774    3.3681250    4.2455219  
  27 C       4.8337957    5.5092861    4.5473558    1.3793239 *  2.1302004 *
  28 N       6.1434382    6.8523524    6.0015699    2.4484725 *  2.6573625 *
  29 O       6.9842123    7.7731978    6.6353096    3.5099865    3.8404375  
  30 O       6.4859990    7.1101491    6.6421966    2.6899167 *  2.3977738 *
  31 C       4.7669731    5.3752241    3.0890782    4.2913239    5.3621077  
  32 O       5.1279490    5.3980884    3.0129793    5.0074941    6.0583969  
  33 N       5.4945120    6.3986654    4.1765733    5.0165847    6.0608827  
  34 H       5.3739315    6.4879075    4.4789114    4.7005100    5.6893525  
  35 C       6.6154282    7.5008226    5.1929143    6.4158239    7.4590793  
  36 C       7.3896958    8.4851686    6.2938708    7.1794823    8.1714464  
  37 H       7.2363683    8.4912429    6.4602171    6.8728062    7.8020629  
  38 C       8.5893922    9.6430836    7.4066592    8.5422120    9.5414968  
  39 H       9.2970111   10.4603599    8.2971537    9.2361668   10.1977333  
  40 N       9.1027547    9.9722925    7.6490389    9.2007969   10.2377806  
  41 C       8.4936372    9.1704694    6.7921758    8.6217262    9.6823976  
  42 H       9.1399561    9.6638848    7.2867157    9.3727997   10.4393080  
  43 C       7.2711530    7.9094339    5.5109997    7.2790808    8.3443572  
  44 H       7.0260506    7.4350941    5.0220879    7.0712178    8.1371077  

               21 C         22 H         23 C         24 C         25 C     

   1 C       6.7287312    6.2135551    6.2402563    7.3110810    8.5826445  
   2 H       7.3287754    6.8287654    6.7811775    7.8127720    9.1184180  
   3 H       6.8755465    6.2171762    6.5999428    7.7845449    8.9811309  
   4 H       7.3055823    6.8672304    6.7327905    7.7025578    8.9842339  
   5 N       5.3575531    4.9291931    4.8053048    5.8787976    7.1513673  
   6 H       5.4433061    5.1858093    4.6643622    5.5724049    6.9116138  
   7 C       4.5741434    4.1659977    4.1416508    5.2446312    6.4184975  
   8 H       5.0455399    4.4677521    4.8697092    6.0496718    7.1222035  
   9 C       5.0992611    4.9490953    4.4554444    5.2529022    6.4115390  
  10 O       5.0945862    4.9816290    4.6233706    5.3504565    6.3339807  
  11 C       6.0844011    6.0853840    5.1639814    5.7010445    6.9508698  
  12 H       6.5964763    6.6970032    5.6601719    6.0157489    7.1750364  
  13 H       5.7663674    5.8827117    4.6796273    5.0925319    6.4036126  
  14 H       6.8973871    6.7876643    6.0189863    6.6406313    7.9271831  
  15 C       3.0630081    2.6418016 *  2.8122376 *  4.0765687    5.1459352  
  16 H       2.7922832 *  2.4342726 *  2.7788309 *  3.9654860    4.8506270  
  17 H       3.1525438    2.4263695 *  3.2382538    4.6148076    5.5852721  
  18 S       2.7645888 *  2.9069819 *  1.7759998 *  2.7632782 *  4.0506852  
  19 C       1.3812802 *  2.1145943 *  2.4179531 *  2.7860969 *  2.4063422 *
  20 H       2.1389390 *  2.4438114 *  3.3905909    3.8572187    3.3740054  
  21 C       0.0000000    1.0715686 *  1.3921960 *  2.4060803 *  2.7642747 *
  22 H       1.0715686 *  0.0000000    2.1406836 *  3.3825194    3.8356430  
  23 C       1.3921960 *  2.1406836 *  0.0000000    1.4041175 *  2.4140022 *
  24 C       2.4060803 *  3.3825194    1.4041175 *  0.0000000    1.3841695 *
  25 C       2.7642747 *  3.8356430    2.4140022 *  1.3841695 *  0.0000000  
  26 H       3.8356625    4.9068385    3.3920415    2.1413945 *  1.0717005 *
  27 C       2.3769973 *  3.3420556    2.7713633 *  2.3923822 *  1.3811034 *
  28 N       3.7094101    4.5607868    4.2255838    3.7175293    2.4450841 *
  29 O       4.6451993    5.5836266    4.8913147    4.0671632    2.6839283 *
  30 O       4.0692353    4.7115784    4.8960084    4.6586176    3.5071399  
  31 C       3.7996004    4.6716443    2.5364022 *  1.5065807 *  2.4888077 *
  32 O       4.3273291    5.0573842    3.0029628    2.3607045 *  3.4450889  
  33 N       4.7295493    5.6525485    3.5770065    2.4093190 *  2.9240360 *
  34 H       4.5873053    5.5382187    3.6289433    2.4709812 *  2.6655260 *
  35 C       6.0968099    6.9859086    4.8814335    3.7722330    4.2628375  
  36 C       6.9964126    7.9029940    5.8873579    4.7593868    5.0199271  
  37 H       6.8223098    7.7405532    5.8600072    4.7420127    4.8094543  
  38 C       8.3230295    9.2106920    7.1622916    6.0555302    6.3499049  
  39 H       9.0919753    9.9846487    7.9945802    6.8848909    7.0711835  
  40 N       8.8675861    9.7217267    7.6110681    6.5512225    6.9924748  
  41 C       8.1861840    9.0056575    6.8733658    5.8764672    6.4658128  
  42 H       8.8679964    9.6439336    7.5250474    6.6015043    7.2623323  
  43 C       6.8227060    7.6474955    5.5107246    4.5170083    5.1758770  
  44 H       6.5106736    7.2766548    5.1716019    4.3067693    5.1098362  

               26 H         27 C         28 N         29 O         30 O     

   1 C       9.4384312    8.9122208   10.3363964   11.0890084   10.7698229  
   2 H       9.9488916    9.5006370   10.9390378   11.6710307   11.3974155  
   3 H       9.8993942    9.1535895   10.5395144   11.3761193   10.8594713  
   4 H       9.7875338    9.3891963   10.8069992   11.5045117   11.2880992  
   5 N       8.0125803    7.5030676    8.9376575    9.6725120    9.4113693  
   6 H       7.6926063    7.4298058    8.8826292    9.5231801    9.4640063  
   7 C       7.3076650    6.6764550    8.0701790    8.8272048    8.5083567  
   8 H       8.0539738    7.2141372    8.5490439    9.3829492    8.8632690  
   9 C       7.1673890    6.8470112    8.1984062    8.8126922    8.7545603  
  10 O       7.0719226    6.6605845    7.9105706    8.5234579    8.4122816  
  11 C       7.5608917    7.6322855    8.9975575    9.4668748    9.6937817  
  12 H       7.6864117    7.9093656    9.2029935    9.5845044    9.9381924  
  13 H       6.9613222    7.2097805    8.5958477    9.0038921    9.3695027  
  14 H       8.5598247    8.5841135    9.9737915   10.4772455   10.6397267  
  15 C       6.1129683    5.2601985    6.6486634    7.4698233    7.0442135  
  16 H       5.8203762    4.8337957    6.1434382    6.9842123    6.4859990  
  17 H       6.6069070    5.5092861    6.8523524    7.7731978    7.1101491  
  18 S       4.9044774    4.5473558    6.0015699    6.6353096    6.6421966  
  19 C       3.3681250    1.3793239 *  2.4484725 *  3.5099865    2.6899167 *
  20 H       4.2455219    2.1302004 *  2.6573625 *  3.8404375    2.3977738 *
  21 C       3.8356625    2.3769973 *  3.7094101    4.6451993    4.0692353  
  22 H       4.9068385    3.3420556    4.5607868    5.5836266    4.7115784  
  23 C       3.3920415    2.7713633 *  4.2255838    4.8913147    4.8960084  
  24 C       2.1413945 *  2.3923822 *  3.7175293    4.0671632    4.6586176  
  25 C       1.0717005 *  1.3811034 *  2.4450841 *  2.6839283 *  3.5071399  
  26 H       0.0000000    2.1229454 *  2.6361383 *  2.3712475 *  3.8189297  
  27 C       2.1229454 *  0.0000000    1.4542318 *  2.2690405 *  2.2678245 *
  28 N       2.6361383 *  1.4542318 *  0.0000000    1.1940792 *  1.1930206 *
  29 O       2.3712475 *  2.2690405 *  1.1940792 *  0.0000000    2.1161170 *
  30 O       3.8189297    2.2678245 *  1.1930206 *  2.1161170 *  0.0000000  
  31 C       2.6893777 *  3.7627552    4.9316236    5.0024653    5.9824880  
  32 O       3.6686754    4.6350621    5.8422255    5.9487869    6.8514489  
  33 N       2.7318641 *  4.2573387    5.1978309    5.0255421    6.3228561  
  34 H       2.4411955 *  3.8749716    4.6993997    4.5065408    5.8024968  
  35 C       3.8903726    5.6130434    6.4507329    6.1234069    7.6056650  
  36 C       4.5115771    6.2865947    6.9381675    6.4747176    8.0828247  
  37 H       4.2892824    5.9501936    6.4835603    6.0013066    7.5843286  
  38 C       5.7893644    7.6368240    8.2494855    7.7121585    9.4049485  
  39 H       6.4641117    8.2951209    8.7987335    8.1975369    9.9295889  
  40 N       6.4661034    8.3415698    9.0407858    8.5294653   10.2170042  
  41 C       6.0371874    7.8434730    8.6637558    8.2511432    9.8371631  
  42 H       6.8654980    8.6408206    9.4958058    9.1014502   10.6645258  
  43 C       4.8460882    6.5510480    7.4544248    7.1452705    8.6105130  
  44 H       4.9124285    6.4549159    7.4545380    7.2520139    8.5770652  

               31 C         32 O         33 N         34 H         35 C     

   1 C       7.3548813    6.9893012    8.1781484    8.4952912    8.7797321  
   2 H       7.7539770    7.2326447    8.6422780    9.0605543    9.1725623  
   3 H       8.0102419    7.7269071    8.8634650    9.1014992    9.5695847  
   4 H       7.6339279    7.3192957    8.3035809    8.5927318    8.7900417  
   5 N       5.9789282    5.6528369    6.8695215    7.1880532    7.5728009  
   6 H       5.4482778    4.9821936    6.3388892    6.7724754    6.9278662  
   7 C       5.5425994    5.5107591    6.3027266    6.4359467    7.1283555  
   8 H       6.4928450    6.5361621    7.2191236    7.2583756    8.0870565  
   9 C       5.3219912    5.4329489    5.7688009    5.8311471    6.4251992  
  10 O       5.5788018    5.9278287    5.8458649    5.7058408    6.5625022  
  11 C       5.3565214    5.2784053    5.6709296    5.9040626    6.0112614  
  12 H       5.5889345    5.6512256    5.6427169    5.7840575    5.8415431  
  13 H       4.5659076    4.3393135    4.9615645    5.3460967    5.2521106  
  14 H       6.2722869    6.0566408    6.6516385    6.9438061    6.9228993  
  15 C       4.6977273    4.8027017    5.5972057    5.6671592    6.6458192  
  16 H       4.7669731    5.1279490    5.4945120    5.3739315    6.6154282  
  17 H       5.3752241    5.3980884    6.3986654    6.4879075    7.5008226  
  18 S       3.0890782    3.0129793    4.1765733    4.4789114    5.1929143  
  19 C       4.2913239    5.0074941    5.0165847    4.7005100    6.4158239  
  20 H       5.3621077    6.0583969    6.0608827    5.6893525    7.4590793  
  21 C       3.7996004    4.3273291    4.7295493    4.5873053    6.0968099  
  22 H       4.6716443    5.0573842    5.6525485    5.5382187    6.9859086  
  23 C       2.5364022 *  3.0029628    3.5770065    3.6289433    4.8814335  
  24 C       1.5065807 *  2.3607045 *  2.4093190 *  2.4709812 *  3.7722330  
  25 C       2.4888077 *  3.4450889    2.9240360 *  2.6655260 *  4.2628375  
  26 H       2.6893777 *  3.6686754    2.7318641 *  2.4411955 *  3.8903726  
  27 C       3.7627552    4.6350621    4.2573387    3.8749716    5.6130434  
  28 N       4.9316236    5.8422255    5.1978309    4.6993997    6.4507329  
  29 O       5.0024653    5.9487869    5.0255421    4.5065408    6.1234069  
  30 O       5.9824880    6.8514489    6.3228561    5.8024968    7.6056650  
  31 C       0.0000000    1.1945462 *  1.3648975 *  2.0131275 *  2.4902306 *
  32 O       1.1945462 *  0.0000000    2.2673749 *  3.1088493    2.9155673 *
  33 N       1.3648975 *  2.2673749 *  0.0000000    0.9948908 *  1.4009872 *
  34 H       2.0131275 *  3.1088493    0.9948908 *  0.0000000    2.0330740 *
  35 C       2.4902306 *  2.9155673 *  1.4009872 *  2.0330740 *  0.0000000  
  36 C       3.6954866    4.2787900    2.3875980 *  2.4874302 *  1.3919934 *
  37 H       3.9746138    4.7875552    2.6149668 *  2.2798110 *  2.1548652 *
  38 C       4.8659416    5.2382637    3.6489279    3.8610515    2.3850313 *
  39 H       5.7977020    6.2581893    4.5132117    4.5483400    3.3629995  
  40 N       5.1875832    5.2627046    4.1891446    4.6615071    2.7902888 *
  41 C       4.4140042    4.2500643    3.6948784    4.4052855    2.3728824 *
  42 H       5.1042020    4.7135194    4.5832462    5.3724831    3.3493866  
  43 C       3.0397019    2.8979447 *  2.4693409 *  3.3156841    1.3887254 *
  44 H       2.8145212 *  2.2722533 *  2.7549204 *  3.7261258    2.1509213 *

               36 C         37 H         38 C         39 H         40 N     

   1 C       9.7035634    9.9495134   10.5013367   11.2988676   10.5261557  
   2 H      10.1713003   10.5126935   10.9039929   11.7470495   10.8048690  
   3 H      10.4753753   10.6432844   11.3413553   12.1193760   11.4399642  
   4 H       9.6007616    9.8377851   10.3160304   11.0508389   10.3473691  
   5 N       8.5566948    8.7870518    9.4461546   10.2806596    9.5252724  
   6 H       7.9661201    8.3003937    8.7847279    9.6587191    8.7636450  
   7 C       7.9797202    8.0466119    8.9730037    9.7306028    9.2476807  
   8 H       8.8689077    8.8534620    9.8822349   10.5905747   10.2181397  
   9 C       7.0806273    7.1066643    7.9924118    8.6563666    8.3353515  
  10 O       7.0345858    6.8838141    8.0019935    8.5576276    8.5204080  
  11 C       6.6478743    6.8522715    7.3487530    8.0246893    7.5162532  
  12 H       6.2634596    6.4066710    6.8792662    7.4451571    7.1272495  
  13 H       6.0384305    6.3713598    6.7299103    7.5031747    6.7891259  
  14 H       7.5835539    7.8489185    8.1910386    8.8684260    8.2457981  
  15 C       7.5663230    7.5640606    8.7041395    9.4934009    9.0661497  
  16 H       7.3896958    7.2363683    8.5893922    9.2970111    9.1027547  
  17 H       8.4851686    8.4912429    9.6430836   10.4603599    9.9722925  
  18 S       6.2938708    6.4602171    7.4066592    8.2971537    7.6490389  
  19 C       7.1794823    6.8728062    8.5422120    9.2361668    9.2007969  
  20 H       8.1714464    7.8020629    9.5414968   10.1977333   10.2377806  
  21 C       6.9964126    6.8223098    8.3230295    9.0919753    8.8675861  
  22 H       7.9029940    7.7405532    9.2106920    9.9846487    9.7217267  
  23 C       5.8873579    5.8600072    7.1622916    7.9945802    7.6110681  
  24 C       4.7593868    4.7420127    6.0555302    6.8848909    6.5512225  
  25 C       5.0199271    4.8094543    6.3499049    7.0711835    6.9924748  
  26 H       4.5115771    4.2892824    5.7893644    6.4641117    6.4661034  
  27 C       6.2865947    5.9501936    7.6368240    8.2951209    8.3415698  
  28 N       6.9381675    6.4835603    8.2494855    8.7987335    9.0407858  
  29 O       6.4747176    6.0013066    7.7121585    8.1975369    8.5294653  
  30 O       8.0828247    7.5843286    9.4049485    9.9295889   10.2170042  
  31 C       3.6954866    3.9746138    4.8659416    5.7977020    5.1875832  
  32 O       4.2787900    4.7875552    5.2382637    6.2581893    5.2627046  
  33 N       2.3875980 *  2.6149668 *  3.6489279    4.5132117    4.1891446  
  34 H       2.4874302 *  2.2798110 *  3.8610515    4.5483400    4.6615071  
  35 C       1.3919934 *  2.1548652 *  2.3850313 *  3.3629995    2.7902888 *
  36 C       0.0000000    1.0755719 *  1.3791878 *  2.1280998 *  2.3841694 *
  37 H       1.0755719 *  0.0000000    2.1320340 *  2.4507583 *  3.3411847  
  38 C       1.3791878 *  2.1320340 *  0.0000000    1.0758344 *  1.3213430 *
  39 H       2.1280998 *  2.4507583 *  1.0758344 *  0.0000000    2.0410234 *
  40 N       2.3841694 *  3.3411847    1.3213430 *  2.0410234 *  0.0000000  
  41 C       2.6837106 *  3.7581332    2.2473290 *  3.2108178    1.3194728 *
  42 H       3.7594672    4.8334552    3.2089877    4.0696802    2.0358830 *
  43 C       2.3831362 *  3.3716281    2.7073253 *  3.7829702    2.3994302 *
  44 H       3.3680479    4.2831512    3.7738282    4.8490361    3.3492076  

               41 C         42 H         43 C         44 H     

   1 C       9.7084645    9.9351343    8.7846499    8.2782478  
   2 H       9.9041974   10.0188564    9.0221482    8.4226217  
   3 H      10.6431646   10.9156942    9.6669481    9.1710526  
   4 H       9.6222062    9.8551411    8.8042014    8.3951334  
   5 N       8.6786329    8.9754502    7.6465698    7.1266157  
   6 H       7.8611440    8.0932712    6.8679752    6.2992935  
   7 C       8.5399475    9.0006168    7.4589726    7.0984327  
   8 H       9.5617079   10.0469986    8.4878435    8.1609487  
   9 C       7.7913436    8.3207998    6.8398268    6.6734650  
  10 O       8.1306531    8.7774742    7.1900962    7.1710682  
  11 C       6.9652793    7.3819390    6.1967534    6.0459797  
  12 H       6.7542992    7.2371751    6.1201691    6.1523367  
  13 H       6.1115189    6.4769671    5.2982955    5.0523920  
  14 H       7.6539241    7.9545476    6.9650170    6.7407606  
  15 C       8.3291945    8.8670274    7.1045888    6.7199570  
  16 H       8.4936372    9.1399561    7.2711530    7.0260506  
  17 H       9.1704694    9.6638848    7.9094339    7.4350941  
  18 S       6.7921758    7.2867157    5.5109997    5.0220879  
  19 C       8.6217262    9.3727997    7.2790808    7.0712178  
  20 H       9.6823976   10.4393080    8.3443572    8.1371077  
  21 C       8.1861840    8.8679964    6.8227060    6.5106736  
  22 H       9.0056575    9.6439336    7.6474955    7.2766548  
  23 C       6.8733658    7.5250474    5.5107246    5.1716019  
  24 C       5.8764672    6.6015043    4.5170083    4.3067693  
  25 C       6.4658128    7.2623323    5.1758770    5.1098362  
  26 H       6.0371874    6.8654980    4.8460882    4.9124285  
  27 C       7.8434730    8.6408206    6.5510480    6.4549159  
  28 N       8.6637558    9.4958058    7.4544248    7.4545380  
  29 O       8.2511432    9.1014502    7.1452705    7.2520139  
  30 O       9.8371631   10.6645258    8.6105130    8.5770652  
  31 C       4.4140042    5.1042020    3.0397019    2.8145212 *
  32 O       4.2500643    4.7135194    2.8979447 *  2.2722533 *
  33 N       3.6948784    4.5832462    2.4693409 *  2.7549204 *
  34 H       4.4052855    5.3724831    3.3156841    3.7261258  
  35 C       2.3728824 *  3.3493866    1.3887254 *  2.1509213 *
  36 C       2.6837106 *  3.7594672    2.3831362 *  3.3680479  
  37 H       3.7581332    4.8334552    3.3716281    4.2831512  
  38 C       2.2473290 *  3.2089877    2.7073253 *  3.7738282  
  39 H       3.2108178    4.0696802    3.7829702    4.8490361  
  40 N       1.3194728 *  2.0358830 *  2.3994302 *  3.3492076  
  41 C       0.0000000    1.0759757 *  1.3850605 *  2.1374061 *
  42 H       1.0759757 *  0.0000000    2.1256850 *  2.4509472 *
  43 C       1.3850605 *  2.1256850 *  0.0000000    1.0678100 *
  44 H       2.1374061 *  2.4509472 *  1.0678100 *  0.0000000  

  * ... LESS THAN  3.000


     ATOMIC BASIS SET
     ----------------
 THE CONTRACTED PRIMITIVE FUNCTIONS HAVE BEEN UNNORMALIZED
 THE CONTRACTED BASIS FUNCTIONS ARE NOW NORMALIZED TO UNITY

  SHELL TYPE  PRIMITIVE        EXPONENT          CONTRACTION COEFFICIENT(S)

 C         

      1   S       1          3047.5248800    0.001834737132
      1   S       2           457.3695180    0.014037322813
      1   S       3           103.9486850    0.068842622264
      1   S       4            29.2101553    0.232184443216
      1   S       5             9.2866630    0.467941348435
      1   S       6             3.1639270    0.362311985337

      2   L       7             7.8682723   -0.119332419775    0.068999066591
      2   L       8             1.8812885   -0.160854151696    0.316423960957
      2   L       9             0.5442493    1.143456437840    0.744308290898

      3   L      10             0.1687145    1.000000000000    1.000000000000

      4   D      11             0.8000000    1.000000000000

 H         

      5   S      12            18.7311370    0.033494604338
      5   S      13             2.8253944    0.234726953484
      5   S      14             0.6401217    0.813757326146

      6   S      15             0.1612778    1.000000000000

 H         

      7   S      16            18.7311370    0.033494604338
      7   S      17             2.8253944    0.234726953484
      7   S      18             0.6401217    0.813757326146

      8   S      19             0.1612778    1.000000000000

 H         

      9   S      20            18.7311370    0.033494604338
      9   S      21             2.8253944    0.234726953484
      9   S      22             0.6401217    0.813757326146

     10   S      23             0.1612778    1.000000000000

 N         

     11   S      24          4173.5114600    0.001834772160
     11   S      25           627.4579110    0.013994627002
     11   S      26           142.9020930    0.068586551812
     11   S      27            40.2343293    0.232240873040
     11   S      28            12.8202129    0.469069948082
     11   S      29             4.3904370    0.360455199063

     12   L      30            11.6263619   -0.114961181702    0.067579743878
     12   L      31             2.7162798   -0.169117478561    0.323907295893
     12   L      32             0.7722184    1.145851947027    0.740895139755

     13   L      33             0.2120315    1.000000000000    1.000000000000

     14   D      34             0.8000000    1.000000000000

 H         

     15   S      35            18.7311370    0.033494604338
     15   S      36             2.8253944    0.234726953484
     15   S      37             0.6401217    0.813757326146

     16   S      38             0.1612778    1.000000000000

 C         

     17   S      39          3047.5248800    0.001834737132
     17   S      40           457.3695180    0.014037322813
     17   S      41           103.9486850    0.068842622264
     17   S      42            29.2101553    0.232184443216
     17   S      43             9.2866630    0.467941348435
     17   S      44             3.1639270    0.362311985337

     18   L      45             7.8682723   -0.119332419775    0.068999066591
     18   L      46             1.8812885   -0.160854151696    0.316423960957
     18   L      47             0.5442493    1.143456437840    0.744308290898

     19   L      48             0.1687145    1.000000000000    1.000000000000

     20   D      49             0.8000000    1.000000000000

 H         

     21   S      50            18.7311370    0.033494604338
     21   S      51             2.8253944    0.234726953484
     21   S      52             0.6401217    0.813757326146

     22   S      53             0.1612778    1.000000000000

 C         

     23   S      54          3047.5248800    0.001834737132
     23   S      55           457.3695180    0.014037322813
     23   S      56           103.9486850    0.068842622264
     23   S      57            29.2101553    0.232184443216
     23   S      58             9.2866630    0.467941348435
     23   S      59             3.1639270    0.362311985337

     24   L      60             7.8682723   -0.119332419775    0.068999066591
     24   L      61             1.8812885   -0.160854151696    0.316423960957
     24   L      62             0.5442493    1.143456437840    0.744308290898

     25   L      63             0.1687145    1.000000000000    1.000000000000

     26   D      64             0.8000000    1.000000000000

 O         

     27   S      65          5484.6716600    0.001831074430
     27   S      66           825.2349460    0.013950172200
     27   S      67           188.0469580    0.068445078098
     27   S      68            52.9645000    0.232714335992
     27   S      69            16.8975704    0.470192897984
     27   S      70             5.7996353    0.358520852987

     28   L      71            15.5396162   -0.110777549525    0.070874268231
     28   L      72             3.5999336   -0.148026262701    0.339752839147
     28   L      73             1.0137618    1.130767015354    0.727158577316

     29   L      74             0.2700058    1.000000000000    1.000000000000

     30   D      75             0.8000000    1.000000000000

 C         

     31   S      76          3047.5248800    0.001834737132
     31   S      77           457.3695180    0.014037322813
     31   S      78           103.9486850    0.068842622264
     31   S      79            29.2101553    0.232184443216
     31   S      80             9.2866630    0.467941348435
     31   S      81             3.1639270    0.362311985337

     32   L      82             7.8682723   -0.119332419775    0.068999066591
     32   L      83             1.8812885   -0.160854151696    0.316423960957
     32   L      84             0.5442493    1.143456437840    0.744308290898

     33   L      85             0.1687145    1.000000000000    1.000000000000

     34   D      86             0.8000000    1.000000000000

 H         

     35   S      87            18.7311370    0.033494604338
     35   S      88             2.8253944    0.234726953484
     35   S      89             0.6401217    0.813757326146

     36   S      90             0.1612778    1.000000000000

 H         

     37   S      91            18.7311370    0.033494604338
     37   S      92             2.8253944    0.234726953484
     37   S      93             0.6401217    0.813757326146

     38   S      94             0.1612778    1.000000000000

 H         

     39   S      95            18.7311370    0.033494604338
     39   S      96             2.8253944    0.234726953484
     39   S      97             0.6401217    0.813757326146

     40   S      98             0.1612778    1.000000000000

 C         

     41   S      99          3047.5248800    0.001834737132
     41   S     100           457.3695180    0.014037322813
     41   S     101           103.9486850    0.068842622264
     41   S     102            29.2101553    0.232184443216
     41   S     103             9.2866630    0.467941348435
     41   S     104             3.1639270    0.362311985337

     42   L     105             7.8682723   -0.119332419775    0.068999066591
     42   L     106             1.8812885   -0.160854151696    0.316423960957
     42   L     107             0.5442493    1.143456437840    0.744308290898

     43   L     108             0.1687145    1.000000000000    1.000000000000

     44   D     109             0.8000000    1.000000000000

 H         

     45   S     110            18.7311370    0.033494604338
     45   S     111             2.8253944    0.234726953484
     45   S     112             0.6401217    0.813757326146

     46   S     113             0.1612778    1.000000000000

 H         

     47   S     114            18.7311370    0.033494604338
     47   S     115             2.8253944    0.234726953484
     47   S     116             0.6401217    0.813757326146

     48   S     117             0.1612778    1.000000000000

 S         

     49   S     118         21917.1000000    0.001869240849
     49   S     119          3301.4900000    0.014230306464
     49   S     120           754.1460000    0.069696231659
     49   S     121           212.7110000    0.238487108332
     49   S     122            67.9896000    0.483307219541
     49   S     123            23.0515000    0.338074153569

     50   L     124           423.7350000   -0.002376770499    0.004061009982
     50   L     125           100.7100000   -0.031693006651    0.030681299864
     50   L     126            32.1599000   -0.113317023779    0.130451999421
     50   L     127            11.8079000    0.056090011770    0.327204998547
     50   L     128             4.6311000    0.592255124284    0.452850997989
     50   L     129             1.8702500    0.455006095483    0.256041998863

     51   L     130             2.6158400   -0.250373114159   -0.014510489547
     51   L     131             0.9221670    0.066956763101    0.310262776489
     51   L     132             0.3412870    1.054506269068    0.754482456476

     52   L     133             0.1171670    1.000000000000    1.000000000000

     53   D     134             0.6500000    1.000000000000

 C         

     54   S     135          3047.5248800    0.001834737132
     54   S     136           457.3695180    0.014037322813
     54   S     137           103.9486850    0.068842622264
     54   S     138            29.2101553    0.232184443216
     54   S     139             9.2866630    0.467941348435
     54   S     140             3.1639270    0.362311985337

     55   L     141             7.8682723   -0.119332419775    0.068999066591
     55   L     142             1.8812885   -0.160854151696    0.316423960957
     55   L     143             0.5442493    1.143456437840    0.744308290898

     56   L     144             0.1687145    1.000000000000    1.000000000000

     57   D     145             0.8000000    1.000000000000

 H         

     58   S     146            18.7311370    0.033494604338
     58   S     147             2.8253944    0.234726953484
     58   S     148             0.6401217    0.813757326146

     59   S     149             0.1612778    1.000000000000

 C         

     60   S     150          3047.5248800    0.001834737132
     60   S     151           457.3695180    0.014037322813
     60   S     152           103.9486850    0.068842622264
     60   S     153            29.2101553    0.232184443216
     60   S     154             9.2866630    0.467941348435
     60   S     155             3.1639270    0.362311985337

     61   L     156             7.8682723   -0.119332419775    0.068999066591
     61   L     157             1.8812885   -0.160854151696    0.316423960957
     61   L     158             0.5442493    1.143456437840    0.744308290898

     62   L     159             0.1687145    1.000000000000    1.000000000000

     63   D     160             0.8000000    1.000000000000

 H         

     64   S     161            18.7311370    0.033494604338
     64   S     162             2.8253944    0.234726953484
     64   S     163             0.6401217    0.813757326146

     65   S     164             0.1612778    1.000000000000

 C         

     66   S     165          3047.5248800    0.001834737132
     66   S     166           457.3695180    0.014037322813
     66   S     167           103.9486850    0.068842622264
     66   S     168            29.2101553    0.232184443216
     66   S     169             9.2866630    0.467941348435
     66   S     170             3.1639270    0.362311985337

     67   L     171             7.8682723   -0.119332419775    0.068999066591
     67   L     172             1.8812885   -0.160854151696    0.316423960957
     67   L     173             0.5442493    1.143456437840    0.744308290898

     68   L     174             0.1687145    1.000000000000    1.000000000000

     69   D     175             0.8000000    1.000000000000

 C         

     70   S     176          3047.5248800    0.001834737132
     70   S     177           457.3695180    0.014037322813
     70   S     178           103.9486850    0.068842622264
     70   S     179            29.2101553    0.232184443216
     70   S     180             9.2866630    0.467941348435
     70   S     181             3.1639270    0.362311985337

     71   L     182             7.8682723   -0.119332419775    0.068999066591
     71   L     183             1.8812885   -0.160854151696    0.316423960957
     71   L     184             0.5442493    1.143456437840    0.744308290898

     72   L     185             0.1687145    1.000000000000    1.000000000000

     73   D     186             0.8000000    1.000000000000

 C         

     74   S     187          3047.5248800    0.001834737132
     74   S     188           457.3695180    0.014037322813
     74   S     189           103.9486850    0.068842622264
     74   S     190            29.2101553    0.232184443216
     74   S     191             9.2866630    0.467941348435
     74   S     192             3.1639270    0.362311985337

     75   L     193             7.8682723   -0.119332419775    0.068999066591
     75   L     194             1.8812885   -0.160854151696    0.316423960957
     75   L     195             0.5442493    1.143456437840    0.744308290898

     76   L     196             0.1687145    1.000000000000    1.000000000000

     77   D     197             0.8000000    1.000000000000

 H         

     78   S     198            18.7311370    0.033494604338
     78   S     199             2.8253944    0.234726953484
     78   S     200             0.6401217    0.813757326146

     79   S     201             0.1612778    1.000000000000

 C         

     80   S     202          3047.5248800    0.001834737132
     80   S     203           457.3695180    0.014037322813
     80   S     204           103.9486850    0.068842622264
     80   S     205            29.2101553    0.232184443216
     80   S     206             9.2866630    0.467941348435
     80   S     207             3.1639270    0.362311985337

     81   L     208             7.8682723   -0.119332419775    0.068999066591
     81   L     209             1.8812885   -0.160854151696    0.316423960957
     81   L     210             0.5442493    1.143456437840    0.744308290898

     82   L     211             0.1687145    1.000000000000    1.000000000000

     83   D     212             0.8000000    1.000000000000

 N         

     84   S     213          4173.5114600    0.001834772160
     84   S     214           627.4579110    0.013994627002
     84   S     215           142.9020930    0.068586551812
     84   S     216            40.2343293    0.232240873040
     84   S     217            12.8202129    0.469069948082
     84   S     218             4.3904370    0.360455199063

     85   L     219            11.6263619   -0.114961181702    0.067579743878
     85   L     220             2.7162798   -0.169117478561    0.323907295893
     85   L     221             0.7722184    1.145851947027    0.740895139755

     86   L     222             0.2120315    1.000000000000    1.000000000000

     87   D     223             0.8000000    1.000000000000

 O         

     88   S     224          5484.6716600    0.001831074430
     88   S     225           825.2349460    0.013950172200
     88   S     226           188.0469580    0.068445078098
     88   S     227            52.9645000    0.232714335992
     88   S     228            16.8975704    0.470192897984
     88   S     229             5.7996353    0.358520852987

     89   L     230            15.5396162   -0.110777549525    0.070874268231
     89   L     231             3.5999336   -0.148026262701    0.339752839147
     89   L     232             1.0137618    1.130767015354    0.727158577316

     90   L     233             0.2700058    1.000000000000    1.000000000000

     91   D     234             0.8000000    1.000000000000

 O         

     92   S     235          5484.6716600    0.001831074430
     92   S     236           825.2349460    0.013950172200
     92   S     237           188.0469580    0.068445078098
     92   S     238            52.9645000    0.232714335992
     92   S     239            16.8975704    0.470192897984
     92   S     240             5.7996353    0.358520852987

     93   L     241            15.5396162   -0.110777549525    0.070874268231
     93   L     242             3.5999336   -0.148026262701    0.339752839147
     93   L     243             1.0137618    1.130767015354    0.727158577316

     94   L     244             0.2700058    1.000000000000    1.000000000000

     95   D     245             0.8000000    1.000000000000

 C         

     96   S     246          3047.5248800    0.001834737132
     96   S     247           457.3695180    0.014037322813
     96   S     248           103.9486850    0.068842622264
     96   S     249            29.2101553    0.232184443216
     96   S     250             9.2866630    0.467941348435
     96   S     251             3.1639270    0.362311985337

     97   L     252             7.8682723   -0.119332419775    0.068999066591
     97   L     253             1.8812885   -0.160854151696    0.316423960957
     97   L     254             0.5442493    1.143456437840    0.744308290898

     98   L     255             0.1687145    1.000000000000    1.000000000000

     99   D     256             0.8000000    1.000000000000

 O         

    100   S     257          5484.6716600    0.001831074430
    100   S     258           825.2349460    0.013950172200
    100   S     259           188.0469580    0.068445078098
    100   S     260            52.9645000    0.232714335992
    100   S     261            16.8975704    0.470192897984
    100   S     262             5.7996353    0.358520852987

    101   L     263            15.5396162   -0.110777549525    0.070874268231
    101   L     264             3.5999336   -0.148026262701    0.339752839147
    101   L     265             1.0137618    1.130767015354    0.727158577316

    102   L     266             0.2700058    1.000000000000    1.000000000000

    103   D     267             0.8000000    1.000000000000

 N         

    104   S     268          4173.5114600    0.001834772160
    104   S     269           627.4579110    0.013994627002
    104   S     270           142.9020930    0.068586551812
    104   S     271            40.2343293    0.232240873040
    104   S     272            12.8202129    0.469069948082
    104   S     273             4.3904370    0.360455199063

    105   L     274            11.6263619   -0.114961181702    0.067579743878
    105   L     275             2.7162798   -0.169117478561    0.323907295893
    105   L     276             0.7722184    1.145851947027    0.740895139755

    106   L     277             0.2120315    1.000000000000    1.000000000000

    107   D     278             0.8000000    1.000000000000

 H         

    108   S     279            18.7311370    0.033494604338
    108   S     280             2.8253944    0.234726953484
    108   S     281             0.6401217    0.813757326146

    109   S     282             0.1612778    1.000000000000

 C         

    110   S     283          3047.5248800    0.001834737132
    110   S     284           457.3695180    0.014037322813
    110   S     285           103.9486850    0.068842622264
    110   S     286            29.2101553    0.232184443216
    110   S     287             9.2866630    0.467941348435
    110   S     288             3.1639270    0.362311985337

    111   L     289             7.8682723   -0.119332419775    0.068999066591
    111   L     290             1.8812885   -0.160854151696    0.316423960957
    111   L     291             0.5442493    1.143456437840    0.744308290898

    112   L     292             0.1687145    1.000000000000    1.000000000000

    113   D     293             0.8000000    1.000000000000

 C         

    114   S     294          3047.5248800    0.001834737132
    114   S     295           457.3695180    0.014037322813
    114   S     296           103.9486850    0.068842622264
    114   S     297            29.2101553    0.232184443216
    114   S     298             9.2866630    0.467941348435
    114   S     299             3.1639270    0.362311985337

    115   L     300             7.8682723   -0.119332419775    0.068999066591
    115   L     301             1.8812885   -0.160854151696    0.316423960957
    115   L     302             0.5442493    1.143456437840    0.744308290898

    116   L     303             0.1687145    1.000000000000    1.000000000000

    117   D     304             0.8000000    1.000000000000

 H         

    118   S     305            18.7311370    0.033494604338
    118   S     306             2.8253944    0.234726953484
    118   S     307             0.6401217    0.813757326146

    119   S     308             0.1612778    1.000000000000

 C         

    120   S     309          3047.5248800    0.001834737132
    120   S     310           457.3695180    0.014037322813
    120   S     311           103.9486850    0.068842622264
    120   S     312            29.2101553    0.232184443216
    120   S     313             9.2866630    0.467941348435
    120   S     314             3.1639270    0.362311985337

    121   L     315             7.8682723   -0.119332419775    0.068999066591
    121   L     316             1.8812885   -0.160854151696    0.316423960957
    121   L     317             0.5442493    1.143456437840    0.744308290898

    122   L     318             0.1687145    1.000000000000    1.000000000000

    123   D     319             0.8000000    1.000000000000

 H         

    124   S     320            18.7311370    0.033494604338
    124   S     321             2.8253944    0.234726953484
    124   S     322             0.6401217    0.813757326146

    125   S     323             0.1612778    1.000000000000

 N         

    126   S     324          4173.5114600    0.001834772160
    126   S     325           627.4579110    0.013994627002
    126   S     326           142.9020930    0.068586551812
    126   S     327            40.2343293    0.232240873040
    126   S     328            12.8202129    0.469069948082
    126   S     329             4.3904370    0.360455199063

    127   L     330            11.6263619   -0.114961181702    0.067579743878
    127   L     331             2.7162798   -0.169117478561    0.323907295893
    127   L     332             0.7722184    1.145851947027    0.740895139755

    128   L     333             0.2120315    1.000000000000    1.000000000000

    129   D     334             0.8000000    1.000000000000

 C         

    130   S     335          3047.5248800    0.001834737132
    130   S     336           457.3695180    0.014037322813
    130   S     337           103.9486850    0.068842622264
    130   S     338            29.2101553    0.232184443216
    130   S     339             9.2866630    0.467941348435
    130   S     340             3.1639270    0.362311985337

    131   L     341             7.8682723   -0.119332419775    0.068999066591
    131   L     342             1.8812885   -0.160854151696    0.316423960957
    131   L     343             0.5442493    1.143456437840    0.744308290898

    132   L     344             0.1687145    1.000000000000    1.000000000000

    133   D     345             0.8000000    1.000000000000

 H         

    134   S     346            18.7311370    0.033494604338
    134   S     347             2.8253944    0.234726953484
    134   S     348             0.6401217    0.813757326146

    135   S     349             0.1612778    1.000000000000

 C         

    136   S     350          3047.5248800    0.001834737132
    136   S     351           457.3695180    0.014037322813
    136   S     352           103.9486850    0.068842622264
    136   S     353            29.2101553    0.232184443216
    136   S     354             9.2866630    0.467941348435
    136   S     355             3.1639270    0.362311985337

    137   L     356             7.8682723   -0.119332419775    0.068999066591
    137   L     357             1.8812885   -0.160854151696    0.316423960957
    137   L     358             0.5442493    1.143456437840    0.744308290898

    138   L     359             0.1687145    1.000000000000    1.000000000000

    139   D     360             0.8000000    1.000000000000

 H         

    140   S     361            18.7311370    0.033494604338
    140   S     362             2.8253944    0.234726953484
    140   S     363             0.6401217    0.813757326146

    141   S     364             0.1612778    1.000000000000

 TOTAL NUMBER OF BASIS SET SHELLS             =  141
 NUMBER OF CARTESIAN GAUSSIAN BASIS FUNCTIONS =  430
 NUMBER OF ELECTRONS                          =  196
 CHARGE OF MOLECULE                           =    0
 SPIN MULTIPLICITY                            =    1
 NUMBER OF OCCUPIED ORBITALS (ALPHA)          =   98
 NUMBER OF OCCUPIED ORBITALS (BETA )          =   98
 TOTAL NUMBER OF ATOMS                        =   44
 THE NUCLEAR REPULSION ENERGY IS     2408.9395262314

     $CONTRL OPTIONS
     ---------------
 SCFTYP=RHF          RUNTYP=ENERGY       EXETYP=RUN     
 MPLEVL=       0     CITYP =NONE         CCTYP =NONE         VBTYP =NONE    
 DFTTYP=NONE         TDDFT =NONE    
 MULT  =       1     ICHARG=       0     NZVAR =       0     COORD =UNIQUE  
 PP    =NONE         RELWFN=NONE         LOCAL =NONE         NUMGRD=       F
 ISPHER=      -1     NOSYM =       0     MAXIT =     128     UNITS =ANGS    
 PLTORB=       F     MOLPLT=       T     AIMPAC=       F     FRIEND=        
 NPRINT=       7     IREST =       0     GEOM  =INPUT   
 NORMF =       0     NORMP =       0     ITOL  =      20     ICUT  =       9
 INTTYP=BEST         GRDTYP=BEST         QMTTOL= 1.0E-06

     $SYSTEM OPTIONS
     ---------------
  REPLICATED MEMORY=  7680000000 WORDS (ON EVERY NODE).
 DISTRIBUTED MEMDDI=           0 MILLION WORDS IN AGGREGATE,
 MEMDDI DISTRIBUTED OVER   8 PROCESSORS IS           0 WORDS/PROCESSOR.
 TOTAL MEMORY REQUESTED ON EACH PROCESSOR=  7680000000 WORDS.
 TIMLIM=        5000.00 MINUTES, OR       3.5 DAYS.
 PARALL= T  BALTYP=  DLB     KDIAG=    0  COREFL= F
 MXSEQ2=     300 MXSEQ3=     150  mem10=         0

     INPUT FOR POTENTIAL-DERIVED CHARGES 
     -----------------------------------
     VDWSCL=    1.40   RMAX=    3.00   DELR=    0.80
     VDWINC=    0.20 PTDENS=    0.28
     LAYER =       4  NFREQ=      30 MAXPDC=   10000
     CONSTR=CHARGE    UNITS=ANGS      PTSEL=CONNOLLY
     CENTER=  0.0000  0.0000  0.0000
     DPOLE =  0.0000  0.0000  0.0000
     QPOLE =  0.0000  0.0000  0.0000  0.0000  0.0000  0.0000


          ----------------
          PROPERTIES INPUT
          ----------------

     MOMENTS            FIELD           POTENTIAL          DENSITY
 IEMOM =       1   IEFLD =       0   IEPOT =       1   IEDEN =       0
 WHERE =COMASS     WHERE =NUCLEI     WHERE =PDC        WHERE =NUCLEI  
 OUTPUT=BOTH       OUTPUT=BOTH       OUTPUT=PUNCH      OUTPUT=BOTH    
 IEMINT=       0   IEFINT=       0                     IEDINT=       0
                                                       MORB  =       0
          EXTRAPOLATION IN EFFECT
          SOSCF IN EFFECT
 ORBITAL PRINTING OPTION: NPREO=     1   430     2     1

     -------------------------------
     INTEGRAL TRANSFORMATION OPTIONS
     -------------------------------
     NWORD  =            0
     CUTOFF = 1.0E-09     MPTRAN =       0
     DIRTRF =       T     AOINTS =DUP     

          ----------------------
          INTEGRAL INPUT OPTIONS
          ----------------------
 NOPK  =       1 NORDER=       0 SCHWRZ=       T

     ------------------------------------------
     THE POINT GROUP IS C1 , NAXIS= 0, ORDER= 1
     ------------------------------------------

     DIMENSIONS OF THE SYMMETRY SUBSPACES ARE
 A   =  430

 ..... DONE SETTING UP THE RUN .....
 CPU     0: STEP CPU TIME=     0.07 TOTAL CPU TIME=          0.1 (      0.0 MIN)
 TOTAL WALL CLOCK TIME=          0.1 SECONDS, CPU UTILIZATION IS    70.00%

          ********************
          1 ELECTRON INTEGRALS
          ********************
 ...... END OF ONE-ELECTRON INTEGRALS ......
 CPU     0: STEP CPU TIME=     0.04 TOTAL CPU TIME=          0.1 (      0.0 MIN)
 TOTAL WALL CLOCK TIME=          0.2 SECONDS, CPU UTILIZATION IS    55.00%

          -------------
          GUESS OPTIONS
          -------------
          GUESS =HUCKEL            NORB  =       0          NORDER=       0
          MIX   =       F          PRTMO =       F          PUNMO =       F
          TOLZ  = 1.0E-08          TOLE  = 1.0E-05
          SYMDEN=       F          PURIFY=       F

 INITIAL GUESS ORBITALS GENERATED BY HUCKEL   ROUTINE.
 HUCKEL GUESS REQUIRES   1464668 WORDS.

 SYMMETRIES FOR INITIAL GUESS ORBITALS FOLLOW.   BOTH SET(S).
    98 ORBITALS ARE OCCUPIED (   30 CORE ORBITALS).
    31=A       32=A       33=A       34=A       35=A       36=A       37=A   
    38=A       39=A       40=A       41=A       42=A       43=A       44=A   
    45=A       46=A       47=A       48=A       49=A       50=A       51=A   
    52=A       53=A       54=A       55=A       56=A       57=A       58=A   
    59=A       60=A       61=A       62=A       63=A       64=A       65=A   
    66=A       67=A       68=A       69=A       70=A       71=A       72=A   
    73=A       74=A       75=A       76=A       77=A       78=A       79=A   
    80=A       81=A       82=A       83=A       84=A       85=A       86=A   
    87=A       88=A       89=A       90=A       91=A       92=A       93=A   
    94=A       95=A       96=A       97=A       98=A       99=A      100=A   
   101=A      102=A      103=A      104=A      105=A      106=A      107=A   
   108=A   
 ...... END OF INITIAL ORBITAL SELECTION ......
 CPU     0: STEP CPU TIME=     0.52 TOTAL CPU TIME=          0.6 (      0.0 MIN)
 TOTAL WALL CLOCK TIME=          1.2 SECONDS, CPU UTILIZATION IS    50.40%

                    ----------------------
                    AO INTEGRAL TECHNOLOGY
                    ----------------------
     S,P,L SHELL ROTATED AXIS INTEGRALS, REPROGRAMMED BY
        KAZUYA ISHIMURA (IMS) AND JOSE SIERRA (SYNSTAR).
     S,P,D,L SHELL ROTATED AXIS INTEGRALS PROGRAMMED BY
        KAZUYA ISHIMURA (INSTITUTE FOR MOLECULAR SCIENCE).
     S,P,D,F,G SHELL TO TOTAL QUARTET ANGULAR MOMENTUM SUM 5,
        ERIC PROGRAM BY GRAHAM FLETCHER (ELORET AND NASA ADVANCED
        SUPERCOMPUTING DIVISION, AMES RESEARCH CENTER).
     S,P,D,F,G,L SHELL GENERAL RYS QUADRATURE PROGRAMMED BY
        MICHEL DUPUIS (PACIFIC NORTHWEST NATIONAL LABORATORY).

          --------------------
          2 ELECTRON INTEGRALS
          --------------------

 DIRECT SCF METHOD SKIPS INTEGRAL STORAGE ON DISK.
 DIRECT TRANSFORMATION SKIPS AO INTEGRAL STORAGE ON DISK.
  ...... END OF TWO-ELECTRON INTEGRALS .....
 CPU     0: STEP CPU TIME=     0.01 TOTAL CPU TIME=          0.6 (      0.0 MIN)
 TOTAL WALL CLOCK TIME=          1.3 SECONDS, CPU UTILIZATION IS    50.39%

          --------------------------
                 RHF SCF CALCULATION
          --------------------------

     NUCLEAR ENERGY =      2408.9395262314
     MAXIT =  128     NPUNCH=    2
     EXTRAP=T  DAMP=F  SHIFT=F  RSTRCT=F  DIIS=F  DEM=F  SOSCF=T
     DENSITY MATRIX CONV=  2.00E-07
     SOSCF WILL OPTIMIZE   32536 ORBITAL ROTATIONS, SOGTOL=   0.250
     MEMORY REQUIRED FOR RHF ITERS=   1495882 WORDS.

 DIRECT SCF CALCULATION, SCHWRZ=T   FDIFF=T,  DIRTHR=  0.00E+00 NITDIR=10
 SCHWARZ INEQUALITY OVERHEAD:     62601 INTEGRALS, T=        0.01

                                                                                   NONZERO     BLOCKS
 ITER EX DEM     TOTAL ENERGY        E CHANGE  DENSITY CHANGE     ORB. GRAD      INTEGRALS    SKIPPED
   1  0  0    -1564.9334606077 -1564.9334606077   0.351595079   0.000000000      736788554   41620532
          ---------------START SECOND ORDER SCF---------------
   2  1  0    -1568.2754923938    -3.3420317861   0.427315420   0.135931663      738664457   41742214
   3  2  0    -1568.4901536213    -0.2146612275   0.133136428   0.089717803      728879100   42238374
   4  3  0    -1568.8656785914    -0.3755249701   0.028105103   0.008314053      715166830   42690616
   5  4  0    -1568.8733534806    -0.0076748893   0.011759641   0.006379502      691594949   43180740
   6  5  0    -1568.8743946873    -0.0010412067   0.005201262   0.001559760      665815390   43617645
   7  6  0    -1568.8745920987    -0.0001974113   0.003126287   0.000765299      629035216   44170661
   8  7  0    -1568.8746195064    -0.0000274077   0.001266953   0.000415690      592633069   44612960
   9  8  0    -1568.8746282800    -0.0000087736   0.000238703   0.000100428      564191796   44966990
  10  9  0    -1568.8746294413    -0.0000011613   0.000181111   0.000048842      526838855   45391184
  11 10  0    -1568.8746296646    -0.0000002233   0.000077656   0.000023154      494498070   45750867
  12 11  0    -1568.8746297182    -0.0000000536   0.000031338   0.000011015      475415875   45947808
  13 12  0    -1568.8746297270    -0.0000000088   0.000021931   0.000006314      432060199   46409184
  14 13  0    -1568.8746297278    -0.0000000008   0.000005309   0.000001745      400607900   46677194
  15 14  0    -1568.8746297278     0.0000000000   0.000001867   0.000000645      363354951   47041673
  16 15  0    -1568.8746297269     0.0000000009   0.000000701   0.000000211      318531922   47474339
  17 16  0    -1568.8746297272    -0.0000000003   0.000000294   0.000000063      279213507   47849922
  18 17  0    -1568.8746297253     0.0000000019   0.000000115   0.000000030      233932034   48266529

          -----------------
          DENSITY CONVERGED
          -----------------
     TIME TO FORM FOCK OPERATORS=      75.8 SECONDS (       4.2 SEC/ITER)
     FOCK TIME ON FIRST ITERATION=       6.4, LAST ITERATION=       1.8
     TIME TO SOLVE SCF EQUATIONS=       1.3 SECONDS (       0.1 SEC/ITER)

 FINAL RHF ENERGY IS    -1568.8746297253 AFTER  18 ITERATIONS

          ------------
          EIGENVECTORS
          ------------

                      1          2          3          4          5
                  -91.9711   -20.6139   -20.6133   -20.5664   -20.5637
                     A          A          A          A          A   
    1  C  1  S    0.000000   0.000000   0.000000  -0.000001   0.000000
    2  C  1  S    0.000009   0.000000   0.000000  -0.000005   0.000002
    3  C  1  X    0.000019   0.000000   0.000000  -0.000006   0.000002
    4  C  1  Y   -0.000006   0.000000   0.000000   0.000005   0.000000
    5  C  1  Z    0.000009   0.000000   0.000000   0.000001   0.000000
    6  C  1  S   -0.000167  -0.000001  -0.000001   0.000069  -0.000020
    7  C  1  X    0.000032   0.000001   0.000000  -0.000023   0.000003
    8  C  1  Y   -0.000051  -0.000001  -0.000001  -0.000005  -0.000009
    9  C  1  Z    0.000015  -0.000001  -0.000002   0.000004   0.000004
   10  C  1 XX   -0.000007   0.000000   0.000000   0.000002  -0.000001
   11  C  1 YY   -0.000003   0.000000   0.000000   0.000000  -0.000001
   12  C  1 ZZ   -0.000004   0.000000   0.000000   0.000001   0.000000
   13  C  1 XY    0.000003   0.000000   0.000000   0.000000   0.000001
   14  C  1 XZ   -0.000002   0.000000   0.000000  -0.000002  -0.000001
   15  C  1 YZ    0.000003   0.000000   0.000000   0.000003   0.000000
   16  H  2  S    0.000002   0.000000   0.000000  -0.000004   0.000000
   17  H  2  S    0.000009  -0.000001  -0.000001  -0.000007   0.000001
[...]
   20    0.0000000   0.0000000   0.0000000   0.0000000  -0.0000029
   21   -0.0000013   0.0000000   0.0000002   0.0000000  -0.0136204
   22   -0.0000001   0.0000000   0.0000000   0.0000000  -0.0013705
   23    0.0000251  -0.0000005  -0.0000186  -0.0000003  -0.0140617
   24    0.0000036   0.0000000  -0.0000026   0.0000000   0.0026345
   25    0.0000000   0.0000000   0.0000000   0.0000000  -0.0000519
   26    0.0000000   0.0000000   0.0000000   0.0000000   0.0000003
   27    0.0000000   0.0000000   0.0000000   0.0000000   0.0000121
   28    0.0000000   0.0000000   0.0000000   0.0000000   0.0000000
   29    0.0000000   0.0000000   0.0000000   0.0000000   0.0000000
   30    0.0000000   0.0000000   0.0000000   0.0000000   0.0000000
   31   -0.0000003  -0.0000001   0.0000215   0.0000000   0.0000390
   32   -0.0000017   0.0000000   0.0000103   0.0000000   0.0001355
   33    0.0000004   0.0000000  -0.0000021   0.0000000   0.0000017
   34    0.0000000   0.0000000  -0.0000001   0.0000000  -0.0000013
   35    0.0000000   0.0000000   0.0000019   0.0000000   0.0000000
   36    0.0000000   0.0000000   0.0000000   0.0000000   0.0000000
   37    0.0000000   0.0000000   0.0000000   0.0000000   0.0000000
   38    0.0000000   0.0000000   0.0000000   0.0000000   0.0000000
   39    0.0000000   0.0000000   0.0000000   0.0000000   0.0000000
   40    0.0000000   0.0000000   0.0000000   0.0000000   0.0000000
   41    0.0000000   0.0000000   0.0000000   0.0000000   0.0000000
   42    0.0000000   0.0000000   0.0000000   0.0000000   0.0000000
   43   -0.0000003   0.0000000   0.0000016   0.0000000   0.0000000
   44    0.0000000   0.0000000   0.0000004   0.0000000   0.0000000

            16          17          18          19          20

   16    0.4847315
   17   -0.0280027   0.5061079
   18   -0.0347157  -0.0394164  15.5211024
   19   -0.0000638  -0.0000113   0.0023526   4.9012756
   20    0.0000045  -0.0000006  -0.0000749   0.3673637   0.3859032
   21    0.0029176   0.0005617  -0.0503252   0.5131093  -0.0260053
   22   -0.0008255   0.0010826  -0.0031998  -0.0255686  -0.0011792
   23   -0.0031285  -0.0022224   0.2628002  -0.0467243   0.0019531
   24    0.0004451  -0.0002038  -0.0710399  -0.0267382   0.0000168
   25   -0.0000325   0.0000037   0.0029678  -0.0657418   0.0032177
   26    0.0000001   0.0000000  -0.0000673   0.0029487  -0.0000849
   27   -0.0000248   0.0000015   0.0001332   0.5546967  -0.0170495
   28    0.0000000   0.0000000   0.0000054  -0.0453060  -0.0060120
   29    0.0000000   0.0000000   0.0000000   0.0048718   0.0000524
   30    0.0000000   0.0000000   0.0000000   0.0048405   0.0095415
   31    0.0000094  -0.0000033   0.0008483   0.0001565   0.0000031
   32   -0.0000007  -0.0000004   0.0032795  -0.0000036   0.0000000
   33    0.0000001   0.0000000   0.0002362   0.0000028   0.0000000
   34    0.0000001   0.0000000  -0.0000575  -0.0000187   0.0000000
   35    0.0000000   0.0000000  -0.0000185   0.0000001   0.0000000
   36    0.0000000   0.0000000   0.0000021   0.0000000   0.0000000
   37    0.0000000   0.0000000   0.0000002   0.0000000   0.0000000
   38    0.0000000   0.0000000  -0.0000001   0.0000000   0.0000000
   39    0.0000000   0.0000000   0.0000000   0.0000000   0.0000000
   40    0.0000000   0.0000000   0.0000000   0.0000000   0.0000000
   41    0.0000000   0.0000000  -0.0000003   0.0000000   0.0000000
   42    0.0000000   0.0000000   0.0000000   0.0000000   0.0000000
   43    0.0000000   0.0000000  -0.0000093   0.0000000   0.0000000
   44    0.0000000   0.0000000   0.0000297   0.0000000   0.0000000

            21          22          23          24          25

   21    5.0108569
   22    0.3893197   0.4325784
   23    0.5147402  -0.0323377   5.0211463
   24   -0.0395530   0.0015487   0.5308997   5.1234160
   25   -0.0370104   0.0004116  -0.0423028   0.4898820   4.9940406
   26   -0.0000681   0.0000091   0.0023065  -0.0311700   0.3610134
   27   -0.0377494   0.0015144  -0.0289760  -0.0404310   0.5256888
   28    0.0016697  -0.0000589   0.0001879   0.0009145  -0.0445863
   29   -0.0000407   0.0000005   0.0000062   0.0012668   0.0044842
   30    0.0009790  -0.0000017  -0.0000063  -0.0000159   0.0051330
   31    0.0026379  -0.0000598  -0.0229676   0.3788585  -0.0368043
   32    0.0000893   0.0000007  -0.0020082  -0.0774477   0.0001335
   33   -0.0000981   0.0000010   0.0012192  -0.1310777   0.0005188
   34   -0.0000295   0.0000003   0.0001523   0.0037572   0.0030180
   35    0.0000004   0.0000000  -0.0000649   0.0045234   0.0002530
   36    0.0000000   0.0000000   0.0000022  -0.0002525  -0.0000550
   37    0.0000000   0.0000000   0.0000001  -0.0000064  -0.0000120
   38    0.0000000   0.0000000   0.0000000  -0.0000001  -0.0000003
   39    0.0000000   0.0000000   0.0000000   0.0000000   0.0000000
   40    0.0000000   0.0000000   0.0000000  -0.0000001   0.0000000
   41    0.0000000   0.0000000   0.0000000   0.0000051  -0.0000001
   42    0.0000000   0.0000000   0.0000000   0.0000000   0.0000000
   43    0.0000000   0.0000000   0.0000031   0.0000813  -0.0000266
   44    0.0000000   0.0000000  -0.0000034   0.0002133  -0.0000059

            26          27          28          29          30

   26    0.3789270
   27   -0.0113552   4.8589552
   28   -0.0063287   0.2502663   5.6525010
   29    0.0111228  -0.1014727   0.3363077   8.3204561
   30    0.0000720  -0.1012355   0.3391532  -0.1062996   8.3125706
   31   -0.0013716   0.0013119  -0.0000651  -0.0000093   0.0000001
   32   -0.0000443  -0.0000711   0.0000001   0.0000000   0.0000000
   33    0.0036288   0.0004979  -0.0000026   0.0000002   0.0000000
   34    0.0002521  -0.0002889   0.0000046  -0.0000051   0.0000000
   35   -0.0000233  -0.0000006   0.0000000  -0.0000001   0.0000000
   36   -0.0000033  -0.0000009   0.0000000   0.0000000   0.0000000
   37    0.0000052  -0.0000001   0.0000000   0.0000000   0.0000000
   38    0.0000000   0.0000000   0.0000000   0.0000000   0.0000000
   39    0.0000000   0.0000000   0.0000000   0.0000000   0.0000000
   40    0.0000000   0.0000000   0.0000000   0.0000000   0.0000000
   41   -0.0000001   0.0000000   0.0000000   0.0000000   0.0000000
   42    0.0000000   0.0000000   0.0000000   0.0000000   0.0000000
   43   -0.0000081  -0.0000002   0.0000000   0.0000000   0.0000000
   44   -0.0000003   0.0000000   0.0000000   0.0000000   0.0000000

            31          32          33          34          35

   31    4.0685336
   32    0.5915151   8.1421997
   33    0.2656719  -0.0945403   7.4382020
   34   -0.0195043   0.0021444   0.3206158   0.2997719
   35   -0.0233123   0.0048703   0.2190122  -0.0245785   4.4349667
   36    0.0032124   0.0003539  -0.0592889   0.0001112   0.5453075
   37    0.0000488   0.0000022  -0.0031142   0.0045335  -0.0377409
   38   -0.0000616  -0.0000058   0.0022250   0.0001209  -0.0389561
   39    0.0000006   0.0000000  -0.0000721  -0.0000088   0.0024311
   40   -0.0000063  -0.0000016   0.0002443   0.0000118  -0.0258377
   41    0.0001231   0.0003759   0.0028580  -0.0000716  -0.0421433
   42   -0.0000030  -0.0000043  -0.0000662   0.0000025   0.0025280
   43   -0.0026702  -0.0095332  -0.0463849   0.0021258   0.5782518
   44    0.0001770   0.0094474  -0.0040385  -0.0001199  -0.0176614

            36          37          38          39          40

   36    5.1226248
   37    0.3729680   0.4680545
   38    0.5226802  -0.0182536   4.6632848
   39   -0.0575006  -0.0001946   0.4101295   0.4767112
   40   -0.0577329   0.0030993   0.4889419  -0.0424167   6.7749543
   41   -0.0276393  -0.0000678  -0.0852083   0.0044875   0.4855066
   42   -0.0003398   0.0000144   0.0044611  -0.0000480  -0.0436770
   43   -0.0464373   0.0032497  -0.0271978  -0.0005394  -0.0555493
   44    0.0030706  -0.0000645  -0.0000635   0.0000107   0.0025094

            41          42          43          44

   41    4.7076086
   42    0.4091441   0.4756713
   43    0.4954894  -0.0555380   5.0903919
   44   -0.0242378  -0.0000460   0.3652130   0.3890913

          TOTAL MULLIKEN AND LOWDIN ATOMIC POPULATIONS
       ATOM         MULL.POP.    CHARGE          LOW.POP.     CHARGE
    1 C             6.289137   -0.289137         6.339207   -0.339207
    2 H             0.817195    0.182805         0.839713    0.160287
    3 H             0.825252    0.174748         0.847826    0.152174
    4 H             0.861592    0.138408         0.876646    0.123354
    5 N             7.713620   -0.713620         7.411864   -0.411864
    6 H             0.636002    0.363998         0.723715    0.276285
    7 C             6.076550   -0.076550         6.085920   -0.085920
    8 H             0.783532    0.216468         0.825556    0.174444
    9 C             5.474681    0.525319         5.791154    0.208846
   10 O             8.528783   -0.528783         8.295330   -0.295330
   11 C             6.593216   -0.593216         6.478990   -0.478990
   12 H             0.785417    0.214583         0.819161    0.180839
   13 H             0.795419    0.204581         0.822392    0.177608
   14 H             0.809931    0.190069         0.829490    0.170510
   15 C             6.493345   -0.493345         6.383691   -0.383691
   16 H             0.769970    0.230030         0.818037    0.181963
   17 H             0.782931    0.217069         0.828222    0.171778
   18 S            15.745523    0.254477        15.818849    0.181151
   19 C             6.141398   -0.141398         6.102030   -0.102030
   20 H             0.717647    0.282353         0.794882    0.205118
   21 C             6.232700   -0.232700         6.175725   -0.175725
   22 H             0.761928    0.238072         0.818473    0.181527
   23 C             6.142566   -0.142566         6.070908   -0.070908
   24 C             6.120504   -0.120504         6.065617   -0.065617
   25 C             6.164137   -0.164137         6.117862   -0.117862
   26 H             0.709760    0.290240         0.796647    0.203353
   27 C             5.854422    0.145578         6.020696   -0.020696
   28 N             6.478651    0.521349         6.620685    0.379315
   29 O             8.470741   -0.470741         8.290849   -0.290849
   30 O             8.464731   -0.464731         8.287722   -0.287722
   31 C             5.206326    0.793674         5.739640    0.260360
   32 O             8.570894   -0.570894         8.319723   -0.319723
   33 N             7.916251   -0.916251         7.297250   -0.297250
   34 H             0.591938    0.408062         0.690929    0.309071
   35 C             5.581809    0.418191         5.879263    0.120737
   36 C             6.321082   -0.321082         6.243771   -0.243771
   37 H             0.792522    0.207478         0.830772    0.169228
   38 C             5.922096    0.077904         6.051884   -0.051884
   39 H             0.792990    0.207010         0.832183    0.167817
   40 N             7.530046   -0.530046         7.203230   -0.203230
   41 C             5.926230    0.073770         6.051120   -0.051120
   42 H             0.792099    0.207901         0.831671    0.168329
   43 C             6.290913   -0.290913         6.232159   -0.232159
   44 H             0.723522    0.276478         0.798545    0.201455

          -------------------------------
          BOND ORDER AND VALENCE ANALYSIS     BOND ORDER THRESHOLD=0.050
          -------------------------------

                   BOND                       BOND                       BOND
  ATOM PAIR DIST  ORDER      ATOM PAIR DIST  ORDER      ATOM PAIR DIST  ORDER
    1   2  1.083  0.961        1   3  1.084  0.956        1   4  1.091  0.947
    1   5  1.449  0.922        5   6  0.999  0.826        5   7  1.444  0.948
    7   8  1.085  0.938        7   9  1.543  0.899        7  15  1.537  0.985
    9  10  1.193  1.837        9  11  1.511  0.947       11  12  1.081  0.946
   11  13  1.085  0.935       11  14  1.084  0.938       15  16  1.080  0.917
   15  17  1.080  0.926       15  18  1.828  0.934       18  23  1.776  1.030
   19  20  1.071  0.894       19  21  1.381  1.436       19  24  2.786  0.076
   19  27  1.379  1.433       21  22  1.072  0.926       21  23  1.392  1.401
   21  25  2.764  0.079       23  24  1.404  1.401       23  27  2.771  0.078
   24  25  1.384  1.422       24  31  1.507  0.978       25  26  1.072  0.884
   25  27  1.381  1.425       27  28  1.454  0.805       28  29  1.194  1.501
   28  30  1.193  1.508       29  30  2.116  0.171       31  32  1.195  1.778
   31  33  1.365  1.007       33  34  0.995  0.802       33  35  1.401  0.865
   35  36  1.392  1.390       35  40  2.790  0.071       35  43  1.389  1.454
   36  37  1.076  0.931       36  38  1.379  1.437       36  41  2.684  0.091
   38  39  1.076  0.947       38  40  1.321  1.397       38  43  2.707  0.089
   40  41  1.319  1.407       41  42  1.076  0.948       41  43  1.385  1.388
   43  44  1.068  0.892

                       TOTAL       BONDED        FREE
      ATOM            VALENCE     VALENCE     VALENCE
    1 C                 3.772       3.772       0.000
    2 H                 0.930       0.930       0.000
    3 H                 0.927       0.927       0.000
    4 H                 0.926       0.926       0.000
    5 N                 2.638       2.638       0.000
    6 H                 0.828       0.828       0.000
    7 C                 3.725       3.725       0.000
    8 H                 0.918       0.918       0.000
    9 C                 3.617       3.617       0.000
   10 O                 1.898       1.898       0.000
   11 C                 3.760       3.760       0.000
   12 H                 0.926       0.926       0.000
   13 H                 0.924       0.924       0.000
   14 H                 0.925       0.925       0.000
   15 C                 3.740       3.740       0.000
   16 H                 0.910       0.910       0.000
   17 H                 0.907       0.907       0.000
   18 S                 2.011       2.011       0.000
   19 C                 3.853       3.853       0.000
   20 H                 0.901       0.901       0.000
   21 C                 3.856       3.856       0.000
   22 H                 0.915       0.915       0.000
   23 C                 3.942       3.942       0.000
   24 C                 3.859       3.859       0.000
   25 C                 3.839       3.839       0.000
   26 H                 0.900       0.900       0.000
   27 C                 3.765       3.765       0.000
   28 N                 3.815       3.815       0.000
   29 O                 1.728       1.728       0.000
   30 O                 1.732       1.732       0.000
   31 C                 3.782       3.782       0.000
   32 O                 1.893       1.893       0.000
   33 N                 2.724       2.724       0.000
   34 H                 0.816       0.816       0.000
   35 C                 3.763       3.763       0.000
   36 C                 3.848       3.848       0.000
   37 H                 0.926       0.926       0.000
   38 C                 3.853       3.853       0.000
   39 H                 0.921       0.921       0.000
   40 N                 2.884       2.884       0.000
   41 C                 3.816       3.816       0.000
   42 H                 0.921       0.921       0.000
   43 C                 3.823       3.823       0.000
   44 H                 0.908       0.908       0.000

          ---------------------
          ELECTROSTATIC MOMENTS
          ---------------------

 POINT   1           X           Y           Z (BOHR)    CHARGE
                 2.261104    0.609281    1.531873        0.00 (A.U.)
         DX          DY          DZ         /D/  (DEBYE)
     5.168871   -1.475771    1.000250    5.467689
 MERZ-KOLLMAN RADII USED FOR CHARGE FITTING
 NUMBER OF POINTS SELECTED FOR FITTING =    1921

 NET CHARGES:
 -------------------------------------
 ATOM                CHARGE    E.S.D.
 -------------------------------------
 C                  -0.1804    0.4902
 H                   0.1112    0.0326
 H                   0.1211    0.0320
 H                   0.0525    0.0406
 N                  -0.6598    0.1779
 H                   0.4073    0.0183
 C                   0.2631    1.1527
 H                   0.0517    0.0863
 C                   0.6530    0.2843
 O                  -0.5694    0.0180
 C                  -0.4449    0.6430
 H                   0.1309    0.0398
 H                   0.1206    0.0470
 H                   0.1263    0.0501
 C                  -0.2814    0.7652
 H                   0.1152    0.0653
 H                   0.1611    0.0611
 S                  -0.3486    0.0837
 C                  -0.1754    0.4737
 H                   0.1986    0.0284
 C                  -0.2082    0.5355
 H                   0.1671    0.0416
 C                   0.4010    0.5306
 C                  -0.2994    0.6224
 C                  -0.1331    0.5334
 H                   0.1750    0.0361
 C                   0.0300    0.5011
 N                   0.7715    0.1545
 O                  -0.4593    0.0165
 O                  -0.4561    0.0156
 C                   0.8887    0.4092
 O                  -0.5451    0.0419
 N                  -0.8652    0.5587
 H                   0.3894    0.0463
 C                   0.9231    0.6274
 C                  -0.8277    0.3614
 H                   0.2543    0.0282
 C                   0.5605    0.2200
 H                   0.0400    0.0184
 N                  -0.7378    0.0636
 C                   0.5137    0.2456
 H                   0.0504    0.0198
 C                  -0.7533    0.4557
 H                   0.2678    0.0474
 -------------------------------------

 RMS DEVIATION IS            1.028 KCAL/MOLE
 RELATIVE RMS DEVIATION IS   9.183 %

 MULTIPOLE MOMENTS:
 ---------------------------------------------------------
 STATUS  ACTUAL VALUE       QUANTITY        FITTED VALUE 
 ---------------------------------------------------------
 FIXED       0.0000       TOTAL CHARGE         0.0000
             5.4677 D    DIPOLE MOMENT         5.5345 D
 FREE        5.1689 D          DX              5.2375 D
 FREE       -1.4758 D          DY             -1.5097 D
 FREE        1.0003 D          DZ              0.9591 D
 FREE        0.0000 BU         QXX            19.7151 BU
 FREE        0.0000 BU         QYY           -18.1375 BU
 FREE        0.0000 BU         QZZ            -1.5776 BU
 FREE        0.0000 BU         QXY            -8.4097 BU
 FREE        0.0000 BU         QXZ            -8.4297 BU
 FREE        0.0000 BU         QYZ             3.3298 BU
 ---------------------------------------------------------
 ...... END OF PROPERTY EVALUATION ......
 CPU     0: STEP CPU TIME=     2.89 TOTAL CPU TIME=         81.3 (      1.4 MIN)
 TOTAL WALL CLOCK TIME=         84.8 SECONDS, CPU UTILIZATION IS    95.93%
 AN INPUT FILE FOR -MOLPLT- HAS BEEN PUNCHED.
               1539982  WORDS OF DYNAMIC MEMORY USED
 EXECUTION OF GAMESS TERMINATED NORMALLY Tue Sep  9 23:50:45 2025
 DDI: 263640 bytes (0.3 MB / 0 MWords) used by master data server.

 ----------------------------------------
 CPU timing information for all processes
 ========================================
 0: 80.101 + 1.252 = 81.354
 1: 79.825 + 0.495 = 80.321
 2: 80.73 + 0.740 = 80.813
 3: 79.752 + 0.465 = 80.218
 4: 79.759 + 0.796 = 80.556
 5: 79.700 + 0.456 = 80.157
 6: 79.722 + 0.653 = 80.376
 7: 79.643 + 0.431 = 80.74
 ----------------------------------------
 ddikick.x: exited gracefully.
----- accounting info -----
Files used on the master node node0 were:
-rw-r--r-- 1 ucpublic1 userred  3113443 Sep  9 23:50 /scratch/PyRED-19594.master1.q4md-forcefieldtools.org/JOB2-gam_m1-1-2.dat
-rw-r--r-- 1 ucpublic1 userred     3092 Sep  9 23:49 /scratch/PyRED-19594.master1.q4md-forcefieldtools.org/JOB2-gam_m1-1-2.F05
-rw-r--r-- 1 ucpublic1 userred 16098240 Sep  9 23:50 /scratch/PyRED-19594.master1.q4md-forcefieldtools.org/JOB2-gam_m1-1-2.F10
Tue Sep  9 23:50:48 CEST 2025
0.167u 0.095s 1:28.20 0.2%	0+0k 0+160io 0pf+0w
